<?xml version="1.0"?>
<VTKFile type="UnstructuredGrid"  version="0.1"  >
<UnstructuredGrid>
<Piece  NumberOfPoints="1268" NumberOfCells="4847">
<Points>
<DataArray  type="Float64"  NumberOfComponents="3"  format="ascii">1.994716987487452 0.01317707561264319 -1.202466945460223e-11  1.374072606111497 -0.08614134488653273 -5.388997575085332  -1.285941478930618 0.1916557790035214 -5.691288663606836  -1.59032616235459 -0.4515196446136259 1.626303258728257e-17  0.4950030257755884 2.521650519233041 -5.495391852657774  -0.4107718940653654 -2.429115409112172 -5.58531208084276  -0.9314707163843408 -3.006923447963563 4.87890977618477e-17  1.161824811771535 2.948440156756841 -3.391384395534658e-14  2.146749234505421 0.002696741478414759 -0.5615078450779066  2.330988047973839 -0.000873250973709995 -1.113141311680313  2.540713632977715 -0.1384292375506191 -1.637427654548237  2.645241452520652 -0.2872312815961211 -2.18637082393926  2.504842461151312 -0.2752146673621067 -2.746850782899552  2.287876352721185 -0.2088259978706829 -3.283011632728322  2.137771360922677 -0.2093380261300688 -3.844996501809416  1.970142554575494 -0.2193701374385486 -4.401638277082749  1.701580801829277 -0.1696632515169769 -4.915066532844666  1.398049690886424 0.4419377546899956 -5.387643705321969  1.183972204621215 0.9208338616597355 -5.413149504812257  0.7621482426349403 1.234356207118232 -5.461782499987256  0.2539805730796886 1.370727420898931 -5.519751404145364  -0.2689415860383004 1.319053689498898 -5.578906487138381  -0.7357170559581984 1.076180709179107 -5.631191713357971  -1.086003096318238 0.6812820615514149 -5.669884670156524  -1.65706961757681 -0.5275128747266272 -0.6240725009925172  -1.829082870387909 -0.8347372240299333 -1.153553189134448  -2.030635262011336 -1.097965926806997 -1.693320688638939  -2.148557703924963 -0.9683820133813712 -2.295450526931833  -2.119047321408695 -0.7521727279271558 -2.890676896601294  -1.972500555455803 -0.7106310836492745 -3.509380855831461  -1.885028119342598 -0.4902108162504233 -4.093718100793141  -1.832050776792238 -0.1313823297003599 -4.617858136599065  -1.636180550340053 0.1151199882480144 -5.165527944859976  -1.540434086810702 0.1014447694855235 -7.644826989049428e-17  -1.339902801239663 0.6191128040412099 2.218327606354497e-17  -0.9949589579071262 1.053322092476122 2.12059320661159e-17  -0.5243975458638882 1.346285776146202 7.754217898549941e-16  0.01399251627036286 1.481823287560149 3.252316763596149e-17  0.5696211504784076 1.47677978548424 -7.207855520904863e-17  1.105448032340458 1.331487337928338 1.951563910473908e-16  1.561367740818086 1.018090979386763 -2.179459114756194e-16  1.860006992193919 0.551530302300456 1.369433074745588e-16  -0.152869286718376 2.506583809965366 -5.568804938302105  -0.7781210310064858 2.335338381675429 -5.639249366957451  -1.340550096787874 2.011723800088065 -5.702178028336585  -1.803922993566052 1.555830170950866 -5.753534898075912  -2.144678763029901 1.000979069722826 -5.790734833138769  -2.346903237737564 0.3811866585909049 -5.812061421922149  -2.406990243842066 -0.2684488461825228 -5.817196438260218  -2.318433628103212 -0.9144163570965761 -5.805488779558074  -2.059391262210163 -1.511004864267824 -5.774580158166454  -1.615755841275718 -1.983465489741105 -5.72306417450185  -1.043145925381342 -2.287058241276404 -5.657361969815248  -0.6986882361605687 -2.420627649803484 -5.024556445072709  -0.8272574030199392 -2.685291244074475 -4.476216325063944  -0.8113210073272845 -3.118860027310894 -4.01596683617901  -0.7618552434953355 -3.481598098596065 -3.504026669625047  -0.7509882165597778 -3.609083979854663 -2.886473298216772  -0.7986167670519319 -3.732483084086931 -2.268445488219849  -0.8276969497603353 -3.810997815301134 -1.64593496945388  -0.7425506523451623 -3.557242155569485 -1.078322423839125  -0.7147449622328144 -3.21189056194362 -0.5511080601316157  -1.482234509376526 -2.778582553401298 -5.854479658363816e-16  -1.970737176894139 -2.437284655419533 2.764697292186607e-16  -2.362818572203899 -1.988727212877528 2.439101268600111e-16  -2.642390785384022 -1.462244173776716 5.051059276813266e-16  -2.812149102113852 -0.89052423419162 2.276851973687203e-16  -2.877946727920729 -0.2976446157883296 -1.219909928720168e-16  -2.842947107925845 0.2978601752284433 4.065446096494693e-17  -2.70313036896374 0.8776122116387211 -5.041496169361013e-16  -2.452324348076021 1.418519584933707 4.379274460317988e-16  -2.098265626135573 1.898294456130726 1.951060033519619e-16  -1.658391347368763 2.301023318502569 -1.789574489620802e-16  -1.154148079923361 2.619757341302747 -2.081203863085907e-15  -0.6042202207747882 2.851073703499478 -3.577841418755692e-16  -0.02416138323675775 2.990516581461941 4.065982498622179e-16  0.5710641261211448 3.028216945076794 -1.46882551317968e-16  0.6414151130412097 2.696325287154043 -4.983333021490838  0.771852374565919 2.778456367279237 -4.445188759107248  0.8805845204306011 2.73078881179073 -3.897720120696569  0.9481597620953167 2.69798349057175 -3.343104559074628  0.9815370707090804 2.778214865778854 -2.789250505759619  1.013475345489448 2.861817704396183 -2.235671116027784  1.055849759321274 2.898356228459238 -1.677594140621302  1.093646323460014 2.92793989028903 -1.118725590781912  1.124098871622056 2.957526991478201 -0.5594169689370629  0.2477015793419729 -2.415655802610486 -5.510682951113449  0.8844491790088972 -2.245867158009595 -5.438931443942415  1.464891069119211 -1.932330028996181 -5.373934600293736  1.955087092649627 -1.489613175355717 -5.319502697776375  2.318355026965356 -0.937054784961175 -5.279744576064058  2.524994411863564 -0.307899182343253 -5.257941630215678  2.574632820450045 0.3531084349228537 -5.254020561031156  2.465743861849647 1.006614152640354 -5.268052816559671  2.183897076015212 1.604484044160622 -5.301550147358176  1.722560240631265 2.07491696755195 -5.35506775502591  1.13806318635062 2.378906583716481 -5.422118662603529  1.742182153284979 2.73179858498085 5.854691697147836e-16  2.262480931380501 2.395264875892136 -2.601681534737615e-16  2.698000706832733 1.954727370266727 -3.903113804560263e-16  3.021530388777258 1.426473918441798 1.707421408502106e-16  3.223363606607101 0.8405687193648443 -2.844806418042028e-16  3.305434793487241 0.2261994274297442 -4.472186606099012e-16  3.269241566985055 -0.3926051469820059 3.171555149681837e-16  3.113478077610213 -0.9924495549400153 3.510830505762065e-16  2.840400132149515 -1.548806515270482 -1.707368614952523e-16  2.466120284856568 -2.042983582774378 9.732831365154574e-17  2.008125599488538 -2.460814027017948 -3.577575055983979e-16  1.482521285196868 -2.789563899556613 -4.886146623064541e-17  0.9057866143556688 -3.01678997208197 -2.439392613813594e-16  0.2964958724913082 -3.130681163554852 3.414395345104792e-16  -0.32338307292875 -3.126978161260848 2.926910878106614e-16  -1.29067345658392 -0.3506098753383553 -5.690421630247788  -1.068897680254163 -0.8451623229646739 -5.663999894259847  -0.6782440885714781 -1.219621806060448 -5.6187489875115  -0.168757542531344 -1.390394566692369 -5.560546895724229  0.3611301401510615 -1.294122251639114 -5.500717901478111  0.8191548613516448 -1.005201308695582 -5.449538098373106  1.16817203978903 -0.5892762115769014 -5.411042670828763  1.960898302630318 -0.551652302616722 -8.131516293641286e-17  1.751009740180289 -1.077278642631261 7.445724005953314e-16  1.394016468000002 -1.516729095803803 1.136104663605282e-15  0.9227767039454898 -1.830301465573364 3.434443593283319e-16  0.3780412068884804 -1.984007749105097 8.617772484356591e-16  -0.1885780664025548 -1.977994130030172 2.357202029695971e-16  -0.7327557451871473 -1.821291124380143 1.942410916395698e-17  -1.191068596016128 -1.491774666596192 2.975009434367945e-16  -1.480405544894888 -1.006855825633415 6.954512630084263e-16  -1.812414118534285 0.2561131097252937 -2.664867827914479  2.421751940242729 0.6298287624476981 -1.933377861698098  0.7556418177061754 1.42269463362527 -4.617654324361507  0.003134751711410342 1.574821943356493 -0.9318675177876981  1.015098001669947 1.51699057942374 -0.9441494884276413  0.6193243625380082 1.764115149411371 -1.862230514405671  -0.4757031201037318 1.549728101933577 -1.958273018773558  0.1126459993007786 1.698838152590054 -2.957602797129454  -0.3405660022430232 1.569615851499001 -4.678135257405353  1.818199099779932 0.7365610114574719 -3.763003518505052  -0.9541815370276669 1.23451227632913 -2.875526912859068  -1.269464226480212 1.016489154450913 -4.672047638709048  1.301562892980348 1.557566760682666 -2.802482532053872  -0.7813756340336595 1.414221906310649 -3.725761628685261  -1.58370798409762 0.5643609111372817 -3.581008460136619  -0.988817348255397 1.158392548936659 -1.014254585170146  -1.607700527190565 0.2800106654898483 -1.030081240453645  -1.388203055800784 0.7951310659851955 -1.943712885648593  0.8261955720421881 1.570157055202129 -3.620947225245673  1.681455131778566 1.410849015379531 -1.876189895849114  1.878739160554727 0.943024132521903 -0.9866418074548234  2.103426639579445 1.000735947836943 -2.593434794762663  1.62623803052506 0.6468498306152269 -4.727220189271843  -1.882943490361709 -0.1546739965127431 -1.761716647663214  0.05868355051519467 1.656538949473053 -3.863342338366238  2.465845305360337 0.2632819454094029 -2.663569745038379  1.994842599423799 0.5019775153043848 -0.4779055074204815  2.1671824130763 0.4980244878585698 -1.027636182799239  1.710213566460811 0.9718796190568162 -0.4957578884333736  1.845584590132108 0.2253887364997403 -4.583879812097906  1.579035044615276 0.2924902970866011 -5.101748935835201  1.409777182251665 0.7868327264427526 -5.07202467441607  -1.039178737375989 1.089168173550246 -5.170746090958521  -1.377687418630729 0.6683636420802941 -5.233117919580046  -1.641402128985454 0.4875654733502939 -4.648722230221863  -1.765467255797776 -0.2695484060062747 -1.079683539430899  -1.617858736076732 -0.08318463488274264 -0.5123563299218489  -1.474019211051276 0.4496529111656123 -0.5150171376928306  2.417677350191343 0.3274903893149403 -1.506992657970159 
[...]
<PointData  Vectors="displacement"> 
<DataArray  type="Float64"  Name="displacement"  NumberOfComponents="3" format="ascii">0.0000000000000000e+00 0.0000000000000000e+00 0.0000000000000000e+00  2.3801874387039146e-01 1.7214967490238553e-01 -2.2548021017435663e-01  -2.4610491748435034e-01 -6.5284757593625869e-02 -2.2811948829405787e-01  0.0000000000000000e+00 0.0000000000000000e+00 0.0000000000000000e+00  -2.5085988502750622e-01 1.9696131423001081e-01 -1.5378878295302720e-01  2.1026405764250711e-01 -1.5658949268513320e-01 -2.7430412043705160e-01  0.0000000000000000e+00 0.0000000000000000e+00 0.0000000000000000e+00  0.0000000000000000e+00 0.0000000000000000e+00 0.0000000000000000e+00  1.4007794982309285e-01 1.6219417783017789e-02 -2.7025558674284900e-02  2.2664140751190573e-01 5.0002365089948500e-02 -4.1154510437429730e-02  2.7837913014955162e-01 6.1314825735234682e-02 -6.8073760063832436e-02  3.1479788007537873e-01 7.1181915007958146e-02 -1.1573783437008589e-01  3.6121086327942159e-01 1.0261697904744137e-01 -1.7562871083710205e-01  3.8152572096200688e-01 1.3913136101437718e-01 -2.0549869668646062e-01  3.6598705676605298e-01 1.5631295950234136e-01 -2.1038284145731900e-01  3.2530336796418868e-01 1.6578482167438760e-01 -2.1142438785195752e-01  2.8344903684012107e-01 1.7576907998004379e-01 -2.2002008651033347e-01  1.2546477042218915e-01 2.5873242278189557e-01 -2.0066185786943527e-01  1.5699044895982665e-02 2.9817280727181783e-01 -1.9242570547885962e-01  -8.6549394142344999e-02 3.0486426252384080e-01 -1.7768549428211763e-01  -1.7398265891351300e-01 2.7509530424763073e-01 -1.8678415324197592e-01  -2.4449826768614200e-01 2.1920681303626055e-01 -1.9719540705237021e-01  -2.7891829202524632e-01 1.3436252173817476e-01 -2.1245518724842222e-01  -2.8813289942109632e-01 3.7453244402716947e-02 -2.2154185116138386e-01  -1.6519650339865449e-01 -4.3473916731412805e-03 -3.5449363796478513e-02  -2.3981537448130846e-01 -5.1049438530573102e-02 -3.5019798228457431e-02  -2.5755821436750931e-01 -1.0549921446444192e-01 -5.3399907145103676e-02  -2.8848887280990465e-01 -1.1372374007212341e-01 -9.7719323738647890e-02  -3.1421545179528854e-01 -1.1568894870403360e-01 -1.4270331059718208e-01  -3.1180351117095584e-01 -1.4324036905919121e-01 -1.7325419350137430e-01  -3.0466853019484724e-01 -1.4163883821973158e-01 -1.8232068800726700e-01  -2.9819218432495320e-01 -1.1343477030746024e-01 -1.8895131461908321e-01  -2.7849422445312222e-01 -9.0070346133877974e-02 -2.1179940156972440e-01  0.0000000000000000e+00 0.0000000000000000e+00 0.0000000000000000e+00  0.0000000000000000e+00 0.0000000000000000e+00 0.0000000000000000e+00  0.0000000000000000e+00 0.0000000000000000e+00 0.0000000000000000e+00  0.0000000000000000e+00 0.0000000000000000e+00 0.0000000000000000e+00  0.0000000000000000e+00 0.0000000000000000e+00 0.0000000000000000e+00  0.0000000000000000e+00 0.0000000000000000e+00 0.0000000000000000e+00  0.0000000000000000e+00 0.0000000000000000e+00 0.0000000000000000e+00  0.0000000000000000e+00 0.0000000000000000e+00 0.0000000000000000e+00  0.0000000000000000e+00 0.0000000000000000e+00 0.0000000000000000e+00  -2.8162505465578846e-01 1.4452997611381660e-01 -1.6062095107114951e-01  -2.9790972514467878e-01 7.7765572461150664e-02 -1.6678008313408696e-01  -2.9946838169866313e-01 1.7160513966722100e-02 -1.7830289864604237e-01  -2.7184074560310639e-01 -4.5821320717290136e-02 -1.7659689551788577e-01  -2.3349240096222498e-01 -1.1516977728720428e-01 -1.8314204716313434e-01  -1.7639086084325500e-01 -1.7646459928309127e-01 -1.8976415898609439e-01  -1.0387634202071232e-01 -2.1433856986078870e-01 -1.9245159305368531e-01  -2.1752703451572691e-02 -2.3412199357600372e-01 -1.9041970767776598e-01  6.0046717957311334e-02 -2.3884590542604234e-01 -2.0579578486516009e-01  1.0375716756974133e-01 -2.1455739494457210e-01 -2.2395012649949905e-01  1.4885927621074813e-01 -1.8341855457735198e-01 -2.3802414520255660e-01  1.6804818737965921e-01 -2.5332384533197438e-01 -2.5708594384455113e-01  1.4711473793920357e-01 -2.9506260079545255e-01 -2.1834769973128992e-01  1.4450938463968846e-01 -2.8408531001842130e-01 -1.6569078900348491e-01  1.3761994523042712e-01 -2.5884220433706789e-01 -1.2860955861375914e-01  1.2763985416422097e-01 -2.3900577742459772e-01 -1.0784792513302909e-01  1.0311526022088453e-01 -2.0452558414032779e-01 -7.1527971550251784e-02  8.8669382084615195e-02 -1.6559115742751718e-01 -5.0841925753215222e-02  7.2664499170665031e-02 -1.4237232302050276e-01 -3.7434665180425673e-02  3.6682291965110421e-02 -8.1787812048904035e-02 -7.3041172840641799e-03  0.0000000000000000e+00 0.0000000000000000e+00 0.0000000000000000e+00  0.0000000000000000e+00 0.0000000000000000e+00 0.0000000000000000e+00  0.0000000000000000e+00 0.0000000000000000e+00 0.0000000000000000e+00  0.0000000000000000e+00 0.0000000000000000e+00 0.0000000000000000e+00  0.0000000000000000e+00 0.0000000000000000e+00 0.0000000000000000e+00  0.0000000000000000e+00 0.0000000000000000e+00 0.0000000000000000e+00  0.0000000000000000e+00 0.0000000000000000e+00 0.0000000000000000e+00  0.0000000000000000e+00 0.0000000000000000e+00 0.0000000000000000e+00  0.0000000000000000e+00 0.0000000000000000e+00 0.0000000000000000e+00  0.0000000000000000e+00 0.0000000000000000e+00 0.0000000000000000e+00  0.0000000000000000e+00 0.0000000000000000e+00 0.0000000000000000e+00  0.0000000000000000e+00 0.0000000000000000e+00 0.0000000000000000e+00  0.0000000000000000e+00 0.0000000000000000e+00 0.0000000000000000e+00  0.0000000000000000e+00 0.0000000000000000e+00 0.0000000000000000e+00  0.0000000000000000e+00 0.0000000000000000e+00 0.0000000000000000e+00  -2.3922281641615392e-01 2.2074961065818208e-01 -1.5102779678341460e-01  -2.1167402734465338e-01 2.4261030353985111e-01 -1.4268913998976443e-01  -1.6908215876750071e-01 2.5978640325231728e-01 -1.3232472868822753e-01  -1.1945380865162568e-01 2.6548734952228537e-01 -1.0654415422859005e-01  -8.9650738379389874e-02 2.4788253115219464e-01 -7.6418131174722848e-02  -6.6355765449019485e-02 2.1276004021149170e-01 -4.2426185895202362e-02  -5.3616874655455289e-02 1.6822791468457199e-01 -1.4889203807225856e-02  -4.5030258392884014e-02 1.1138414533059035e-01 7.9154054241978109e-03  -2.1632467645114364e-02 5.0079208828577387e-02 1.8866266913014903e-02  2.6910190722717037e-01 -1.1313208124587404e-01 -3.0144281171506154e-01  3.1399651541420054e-01 -4.6433042914008786e-02 -3.0111821844062092e-01  3.3448957581839611e-01 4.9197374045185226e-02 -2.9465882149945088e-01  3.1592043516681312e-01 1.4511949697410628e-01 -2.6586838173282673e-01  2.5698501441653959e-01 2.3414368593481016e-01 -2.3792226558623786e-01  1.7626970480612905e-01 2.9560587064834143e-01 -2.0675121470976418e-01  8.1411225936261947e-02 3.3205470340105825e-01 -1.8491814273459270e-01  -1.2487370686554825e-02 3.4342105809003493e-01 -1.7419707746563415e-01  -1.0036086069465236e-01 3.2106278491455842e-01 -1.6439771832373690e-01  -1.6006501766117634e-01 2.9263185272866510e-01 -1.5683769994648983e-01  -2.0315285113065742e-01 2.4911800570134213e-01 -1.4747761388722028e-01  0.0000000000000000e+00 0.0000000000000000e+00 0.0000000000000000e+00  0.0000000000000000e+00 0.0000000000000000e+00 0.0000000000000000e+00  0.0000000000000000e+00 0.0000000000000000e+00 0.0000000000000000e+00  0.0000000000000000e+00 0.0000000000000000e+00 0.0000000000000000e+00  0.0000000000000000e+00 0.0000000000000000e+00 0.0000000000000000e+00  0.0000000000000000e+00 0.0000000000000000e+00 0.0000000000000000e+00  0.0000000000000000e+00 0.0000000000000000e+00 0.0000000000000000e+00  0.0000000000000000e+00 0.0000000000000000e+00 0.0000000000000000e+00  0.0000000000000000e+00 0.0000000000000000e+00 0.0000000000000000e+00  0.0000000000000000e+00 0.0000000000000000e+00 0.0000000000000000e+00  0.0000000000000000e+00 0.0000000000000000e+00 0.0000000000000000e+00  0.0000000000000000e+00 0.0000000000000000e+00 0.0000000000000000e+00  0.0000000000000000e+00 0.0000000000000000e+00 0.0000000000000000e+00  0.0000000000000000e+00 0.0000000000000000e+00 0.0000000000000000e+00  0.0000000000000000e+00 0.0000000000000000e+00 0.0000000000000000e+00  -1.7539476514339006e-01 -1.6406357731486859e-01 -2.2825819718362556e-01  -7.3210205009294274e-02 -2.3699315814087263e-01 -2.3034357540391259e-01  5.7182600027011900e-02 -2.7049610393680151e-01 -2.2824676657621970e-01  1.8686363543322568e-01 -2.3900509854245600e-01 -2.4470941941955454e-01  2.8870005019339834e-01 -1.8295041987767346e-01 -2.4990506329344578e-01  3.3107335795391557e-01 -7.2669704360311033e-02 -2.5175936019346118e-01  3.1201747891043202e-01 5.9514470537028470e-02 -2.4259787937411439e-01  0.0000000000000000e+00 0.0000000000000000e+00 0.0000000000000000e+00  0.0000000000000000e+00 0.0000000000000000e+00 0.0000000000000000e+00  0.0000000000000000e+00 0.0000000000000000e+00 0.0000000000000000e+00  0.0000000000000000e+00 0.0000000000000000e+00 0.0000000000000000e+00  0.0000000000000000e+00 0.0000000000000000e+00 0.0000000000000000e+00  0.0000000000000000e+00 0.0000000000000000e+00 0.0000000000000000e+00  0.0000000000000000e+00 0.0000000000000000e+00 0.0000000000000000e+00  0.0000000000000000e+00 0.0000000000000000e+00 0.0000000000000000e+00  0.0000000000000000e+00 0.0000000000000000e+00 0.0000000000000000e+00  -3.9473333727425092e-01 7.6564428127966100e-02 -1.1230905359839263e-01  2.3358401015517680e-01 1.8248589820222558e-01 -8.9502292433989036e-02  -6.4530191872253617e-02 3.6078832447611298e-01 -1.5254218433516470e-01  -6.9966126364647066e-02 2.1590890131263726e-01 -5.7712208038922019e-02  3.5082699305271282e-02 2.1153252644242729e-01 -4.8779613002694289e-02  -4.0503581431342001e-02 3.3244097484503116e-01 -9.8472623565337092e-02  -2.1791513249407318e-01 3.0779790013401942e-01 -9.7496174264198848e-02  -1.6670258944964250e-01 3.8080362452976324e-01 -1.1929647515902281e-01  -2.6163949921868218e-01 2.8124205569788890e-01 -1.5183085190714937e-01  2.1710364800182325e-01 3.1394958545814144e-01 -1.7313532449880842e-01  -3.4430254389743620e-01 2.8101931953925297e-01 -1.0765649157925791e-01  -3.6468283800312112e-01 1.2495142861420729e-01 -1.6624807354565158e-01  5.6461567728307703e-02 3.6712544341935832e-01 -1.4136587066761749e-01  -3.3279421521539310e-01 2.8301892243222626e-01 -1.2474719737849196e-01  -4.1597618391997609e-01 1.0603144423415051e-01 -1.3317419996761726e-01  -1.8791301746669636e-01 1.6908558452226427e-01 -6.1585374014213962e-02  -2.4258154835780116e-01 6.7006177148788981e-02 -5.3535054146235925e-02  -3.3957264685259392e-01 1.7524625794132054e-01 -8.6934703290899612e-02  -3.8250651740713355e-02 3.8977967131275720e-01 -1.4245166314111543e-01  1.1616381879327252e-01 2.8391098723201463e-01 -8.7142173619299906e-02  1.4529387628012935e-01 1.5147546557834715e-01 -4.2675276165328187e-02  2.0417946908227674e-01 2.8171257921299414e-01 -1.4483261726434929e-01  1.4851560793984220e-01 2.9431835456214733e-01 -1.8012295344239890e-01  -3.3485588451943532e-01 2.2272641305004063e-02 -7.1339937235007700e-02  -1.9282158311840403e-01 3.6395602749981426e-01 -1.2842770868527897e-01  3.0466557428109625e-01 1.8599166196109876e-01 -1.6043772438522103e-01  1.1295005083640612e-01 4.7408712519148029e-02 -2.8686392290500198e-02  1.8735846278595947e-01 1.0317720616594311e-01 -3.8675488608550919e-02  8.9221285213082840e-02 8.5996468276721499e-02 -3.1118091844985870e-02  2.4317381360278081e-01 2.4194618573817883e-01 -1.9617283962255774e-01  1.8602293190902341e-01 2.4485966489665972e-01 -2.0390035536857637e-01  8.5607139574890717e-02 2.9865133395535254e-01 -1.8325565221328832e-01  -3.2656347551179299e-01 1.2878196213391510e-01 -1.9212237165553944e-01  -3.2025855260887159e-01 2.5033210975218718e-02 -2.0353135204219641e-01  -3.5449203808611435e-01 7.9624932242083404e-03 -1.7839487481712618e-01  -2.5215941130615616e-01 1.2767438086177118e-02 -4.9746083415638728e-02  -1.4118850571791625e-01 2.4485084685780190e-02 -3.6866768019821229e-02  -1.3125306291600761e-01 5.6166932285926445e-02 -3.8044527622404012e-02  2.3946697166091241e-01 1.1774338871056399e-01 -5.8343716025433055e-02  2.7371973715161874e-01 1.2805060083000347e-01 -9.8036554436696233e-02  1.9430231103583581e-01 1.7450452617175793e-01 -5.9553232702636183e-02  3.1491498809868235e-01 1.2637583983793449e-01 -1.4215967738943650e-01  3.4819680107470663e-01 1.6963743767327255e-01 -1.8668807975008619e-01  2.6142948381238074e-01 1.8629480713721258e-01 -1.2317925882483892e-01  3.1587417269593970e-01 2.3578301611486702e-01 -1.9135739824806836e-01  2.7679492656193389e-01 2.4861298966529166e-01 -1.8919596685757201e-01  2.8781572799545352e-01 2.5817020133635604e-01 -1.8544636771451964e-01  1.8218415796940968e-01 3.0810774473451213e-01 -1.7144166329234656e-01  -2.2538922775917292e-02 3.3530631665794330e-01 -1.6766748834346382e-01  -1.2015064760676260e-01 3.2822505921086320e-01 -1.6640585197982072e-01  4.1066433662930293e-02 3.4106469069590473e-01 -1.6662569501055297e-01  -2.1792956382286591e-01 2.8492658098373408e-01 -1.6965677994013867e-01  -2.8813441258932926e-01 2.1282094701981683e-01 -1.7638138922040947e-01  -1.6850648578899274e-01 3.3541873919686449e-01 -1.5302262168557612e-01  -3.3148882822607989e-01 2.1075920930909853e-01 -1.5690481510643126e-01  -3.2698312856138823e-01 -4.3704803014891457e-02 -7.7709005929566449e-02  -2.9017538887866590e-01 -1.9291911535709326e-02 -5.2793378261620338e-02  -3.0012778513033211e-01 5.1040010371023334e-02 -6.1447655866755040e-02  -3.7694154185450379e-01 -2.9040081455970538e-02 -1.4449705462627718e-01  -3.5453226300685808e-01 -2.3594131947057419e-02 -1.0863896136245989e-01  -3.7205907502485919e-01 5.2685789446340441e-02 -9.1675116159563586e-02  -3.8459875173690550e-01 -1.9466269819796032e-03 -1.5455982152061412e-01  -3.8873704221601463e-01 -2.0479842281783598e-02 -1.5289597102031643e-01  -4.1011695082565969e-01 9.4477006097083274e-02 -1.2666286553724668e-01  -3.9905400915235639e-01 1.1809183973262924e-01 -1.4134691608916564e-01  -1.1039231037658645e-01 8.4498954666672899e-02 -4.0899634681574586e-02  -8.2995503897510370e-02 1.1132415270886351e-01 -4.5361956072487795e-02  -2.2135196590030670e-01 1.1942157149325108e-01 -6.1666977046489838e-02  -4.7395110448199100e-02 1.2661918362906308e-01 -4.2970164131227367e-02  -1.6926242723416141e-02 1.2917442621389635e-01 -4.2409238435742694e-02  -1.2972077490012726e-01 1.9989014812981568e-01 -6.2968018892058455e-02  1.6812818671251069e-02 1.2583304757656461e-01 -3.8411854013447280e-02  5.2438846852233982e-02 1.0656561560190303e-01 -3.2709636772418907e-02  -1.8514648730547714e-02 2.1856488124934370e-01 -5.2239370584281825e-02  8.9972640758191613e-02 1.8652693853326413e-01 -4.4576088605162364e-02  -3.9075162889185289e-01 1.8484201840561174e-01 -1.0645463882328292e-01  -3.9655913830374256e-01 2.0419256278007933e-01 -1.1374669672525033e-01  -3.5175355925022056e-01 2.3403585553185163e-01 -9.6962729049633517e-02  -3.7899907691179296e-01 1.3706307219973726e-01 -9.5105405506145019e-02  -3.4969129737258653e-01 9.9112619061727358e-02 -7.9115885395279612e-02  1.8012491944202325e-01 2.3639511262029722e-01 -8.7115714457890209e-02  1.4045010770220220e-01 2.2219234074617272e-01 -5.9607246073558141e-02  1.5370746516164027e-01 2.8478326408549481e-01 -1.1215910460289122e-01  2.1976351967252697e-01 2.3344161154597085e-01 -1.1827005029816261e-01  2.5643681373842697e-01 2.3909602500723234e-01 -1.5718658596630597e-01  -1.2852352100941086e-01 3.6702919234537101e-01 -1.3967317928168729e-01  -2.3151879276627535e-01 3.3102568924283982e-01 -1.3685732141389123e-01  7.4985636150784657e-02 3.5999777757493195e-01 -1.5706939034230580e-01  9.2645646275244686e-02 3.7019466518651045e-01 -1.5728079359122232e-01  -5.0447417852974623e-02 3.7977218132598184e-01 -1.4555276583762430e-01  -1.1829119684029110e-01 3.8276517974770441e-01 -1.3540523579482630e-01  -6.6371583701552245e-02 2.8265852566406202e-01 -7.1165664959346106e-02  4.0071634521249740e-03 2.7998475710543436e-01 -7.1443240381140416e-02  -1.4573394481138183e-01 2.6988680522618252e-01 -7.4509028839022662e-02  -1.2913510917854723e-01 3.3074436781592542e-01 -9.7917609660707020e-02  -2.1504673914260455e-01 2.3882503477656969e-01 -7.8579691974506302e-02  4.1154627024576534e-02 3.1699821397310346e-01 -9.0225069839782748e-02  7.7341141372402805e-02 2.5714321666671747e-01 -6.6988841328809334e-02  -1.9984700485131277e-01 3.5279512156591109e-01 -1.1182475714530510e-01  -1.0150091324723534e-01 3.7228129889969502e-01 -1.1955591201665641e-01  -5.3118729320590780e-02 3.8510594587268920e-01 -1.3236733174644719e-01  2.9794663023314598e-03 3.5897627853697051e-01 -1.1676975797675282e-01  8.9361123668988796e-02 3.3133104957130927e-01 -1.1774276878162629e-01  -2.8731773293012403e-01 3.0890094403018281e-01 -1.0623627193853404e-01  -2.6541530396588758e-01 3.4157446565759253e-01 -1.1345717714250848e-01  -2.9145442677872746e-01 2.4933523383329667e-01 -9.1531264149561684e-02  -2.7175683558064362e-01 1.8065360047172624e-01 -7.5034654030519260e-02  -3.4278669095058961e-01 2.8573175867080958e-01 -1.1511303427890666e-01  -2.5826336767439351e-01 3.4684599401679822e-01 -1.1683164578679561e-01  -1.0746543932578304e-01 3.8834058313577519e-01 -1.3280256390751449e-01  1.5182064181082458e-02 3.8618236391288019e-01 -1.4616176060979885e-01  -2.6750013851632226e-01 3.3194781438142207e-01 -1.2215774284388166e-01  -1.8319816328006114e-01 3.7773096748487228e-01 -1.2331912488835552e-01  -2.9956984428788402e-01 2.8867903869132200e-01 -1.3451144131419263e-01  -3.6365451645684160e-01 2.1335423289248290e-01 -1.4092052801396115e-01  1.3759339156180506e-01 3.5652605693427447e-01 -1.6229120112753567e-01  2.2322547375761759e-01 3.0870832531655401e-01 -1.7714063976464270e-01  1.3598508496365880e-01 3.3112523217819267e-01 -1.4449247896370143e-01  -3.9486848535043528e-01 2.0285358225024452e-01 -1.2081785468878460e-01  -3.0403272922370922e-01 1.1845423211060153e-01 -7.1397166468207166e-02  6.2226705087375295e-02 -2.2902188023317949e-01 -1.0195660241949776e-01  -1.4248037903693098e-01 1.2417254640809196e-02 8.0223531918146330e-03  -1.4018431420835450e-01 -2.3894498418902319e-01 -1.9138371284657624e-01  -1.3563387904204860e-01 -3.7753523005395168e-02 -1.2297284300070545e-03  -3.8781044462175146e-02 -1.1134222028302214e-01 -2.4166198078463045e-02  -2.7133665049428729e-01 -1.3132922683576126e-01 -1.8760467342797044e-01  -3.2132708359393852e-01 2.7622981340398010e-02 -1.6427262071381118e-01  -1.0466109521001672e-01 1.4803342094873365e-01 -8.6202406892896041e-03  -2.6105046462262321e-01 -1.4451786112637302e-01 -1.5442624632845237e-01  -2.2804436158074368e-01 2.1798098481430003e-01 -1.2396073228902327e-01  -1.1058983584733231e-01 -2.4991245729437025e-01 -1.5826859942655447e-01  -1.8523259527250260e-01 -1.8749888327025971e-01 -1.0069610804837568e-01  -6.2179893752186625e-02 -2.2411177683296893e-01 -1.0143840304856669e-01  -1.1425726308327772e-01 -1.7571513178311854e-01 -7.0735518462642699e-02  -2.4116255162542849e-01 -3.1032544524220166e-02 -4.3109284603042260e-02  -2.3711987700907927e-01 6.9912946336864082e-02 -3.0183767739903437e-02  -1.0151687081987367e-03 -2.6344918043485832e-01 -1.4743077562293413e-01  -3.0511663946872730e-01 -3.6502322775282168e-03 -9.4217936377158681e-02  -2.9962899646548374e-01 1.0077196588247708e-01 -9.9698338073061193e-02  4.7907891332438980e-02 -1.7841383103794226e-01 -6.5389718660277582e-02  -1.8697628767325913e-01 1.4545334028335075e-01 -2.4901482536746629e-02  -9.9395637090134326e-02 -9.6497099412648474e-02 -2.5411610877212307e-02  -3.1033327224903894e-02 -2.4084534975211921e-01 -1.8329527223041758e-01  9.2247816738030685e-03 -2.0287234488314110e-01 -8.1154995729267113e-02  -1.2294214221481345e-01 6.6714627281436498e-02 1.0547554695360613e-02  -1.5707390317556846e-01 2.2288062729427141e-01 -6.7300988815423193e-02  7.3955063994911419e-02 -2.6275183436261546e-01 -1.3914389177955083e-01  4.6529331109041359e-02 -2.6125121265976120e-01 -1.9858711900263001e-01  -2.6178497011903551e-01 1.8452838160650162e-01 -1.4802405856437653e-01  -8.2950990547016185e-02 7.9588309582640362e-02 1.4166116491750601e