<?xml version="1.0"?>
<VTKFile type="UnstructuredGrid"  version="0.1"  >
<UnstructuredGrid>
<Piece  NumberOfPoints="1268" NumberOfCells="4847">
<Points>
<DataArray  type="Float64"  NumberOfComponents="3"  format="ascii">1.994716987487452 0.01317707561264319 -1.202466945460223e-11  1.374072606111497 -0.08614134488653273 -5.388997575085332  -1.285941478930618 0.1916557790035214 -5.691288663606836  -1.59032616235459 -0.4515196446136259 1.626303258728257e-17  0.4950030257755884 2.521650519233041 -5.495391852657774  -0.4107718940653654 -2.429115409112172 -5.58531208084276  -0.9314707163843408 -3.006923447963563 4.87890977618477e-17  1.161824811771535 2.948440156756841 -3.391384395534658e-14  2.146749234505421 0.002696741478414759 -0.5615078450779066  2.330988047973839 -0.000873250973709995 -1.113141311680313  2.540713632977715 -0.1384292375506191 -1.637427654548237  2.645241452520652 -0.2872312815961211 -2.18637082393926  2.504842461151312 -0.2752146673621067 -2.746850782899552  2.287876352721185 -0.2088259978706829 -3.283011632728322  2.137771360922677 -0.2093380261300688 -3.844996501809416  1.970142554575494 -0.2193701374385486 -4.401638277082749  1.701580801829277 -0.1696632515169769 -4.915066532844666  1.398049690886424 0.4419377546899956 -5.387643705321969  1.183972204621215 0.9208338616597355 -5.413149504812257  0.7621482426349403 1.234356207118232 -5.461782499987256  0.2539805730796886 1.370727420898931 -5.519751404145364  -0.2689415860383004 1.319053689498898 -5.578906487138381  -0.7357170559581984 1.076180709179107 -5.631191713357971  -1.086003096318238 0.6812820615514149 -5.669884670156524  -1.65706961757681 -0.5275128747266272 -0.6240725009925172  -1.829082870387909 -0.8347372240299333 -1.153553189134448  -2.030635262011336 -1.097965926806997 -1.693320688638939  -2.148557703924963 -0.9683820133813712 -2.295450526931833  -2.119047321408695 -0.7521727279271558 -2.890676896601294  -1.972500555455803 -0.7106310836492745 -3.509380855831461  -1.885028119342598 -0.4902108162504233 -4.093718100793141  -1.832050776792238 -0.1313823297003599 -4.617858136599065  -1.636180550340053 0.1151199882480144 -5.165527944859976  -1.540434086810702 0.1014447694855235 -7.644826989049428e-17  -1.339902801239663 0.6191128040412099 2.218327606354497e-17  -0.9949589579071262 1.053322092476122 2.12059320661159e-17  -0.5243975458638882 1.346285776146202 7.754217898549941e-16  0.01399251627036286 1.481823287560149 3.252316763596149e-17  0.5696211504784076 1.47677978548424 -7.207855520904863e-17  1.105448032340458 1.331487337928338 1.951563910473908e-16  1.561367740818086 1.018090979386763 -2.179459114756194e-16  1.860006992193919 0.551530302300456 1.369433074745588e-16  -0.152869286718376 2.506583809965366 -5.568804938302105  -0.7781210310064858 2.335338381675429 -5.639249366957451  -1.340550096787874 2.011723800088065 -5.702178028336585  -1.803922993566052 1.555830170950866 -5.753534898075912  -2.144678763029901 1.000979069722826 -5.790734833138769  -2.346903237737564 0.3811866585909049 -5.812061421922149  -2.406990243842066 -0.2684488461825228 -5.817196438260218  -2.318433628103212 -0.9144163570965761 -5.805488779558074  -2.059391262210163 -1.511004864267824 -5.774580158166454  -1.615755841275718 -1.983465489741105 -5.72306417450185  -1.043145925381342 -2.287058241276404 -5.657361969815248  -0.6986882361605687 -2.420627649803484 -5.024556445072709  -0.8272574030199392 -2.685291244074475 -4.476216325063944  -0.8113210073272845 -3.118860027310894 -4.01596683617901  -0.7618552434953355 -3.481598098596065 -3.504026669625047  -0.7509882165597778 -3.609083979854663 -2.886473298216772  -0.7986167670519319 -3.732483084086931 -2.268445488219849  -0.8276969497603353 -3.810997815301134 -1.64593496945388  -0.7425506523451623 -3.557242155569485 -1.078322423839125  -0.7147449622328144 -3.21189056194362 -0.5511080601316157  -1.482234509376526 -2.778582553401298 -5.854479658363816e-16  -1.970737176894139 -2.437284655419533 2.764697292186607e-16  -2.362818572203899 -1.988727212877528 2.439101268600111e-16  -2.642390785384022 -1.462244173776716 5.051059276813266e-16  -2.812149102113852 -0.89052423419162 2.276851973687203e-16  -2.877946727920729 -0.2976446157883296 -1.219909928720168e-16  -2.842947107925845 0.2978601752284433 4.065446096494693e-17  -2.70313036896374 0.8776122116387211 -5.041496169361013e-16  -2.452324348076021 1.418519584933707 4.379274460317988e-16  -2.098265626135573 1.898294456130726 1.951060033519619e-16  -1.658391347368763 2.301023318502569 -1.789574489620802e-16  -1.154148079923361 2.619757341302747 -2.081203863085907e-15  -0.6042202207747882 2.851073703499478 -3.577841418755692e-16  -0.02416138323675775 2.990516581461941 4.065982498622179e-16  0.5710641261211448 3.028216945076794 -1.46882551317968e-16  0.6414151130412097 2.696325287154043 -4.983333021490838  0.771852374565919 2.778456367279237 -4.445188759107248  0.8805845204306011 2.73078881179073 -3.897720120696569  0.9481597620953167 2.69798349057175 -3.343104559074628  0.9815370707090804 2.778214865778854 -2.789250505759619  1.013475345489448 2.861817704396183 -2.235671116027784  1.055849759321274 2.898356228459238 -1.677594140621302  1.093646323460014 2.92793989028903 -1.118725590781912  1.124098871622056 2.957526991478201 -0.5594169689370629  0.2477015793419729 -2.415655802610486 -5.510682951113449  0.8844491790088972 -2.245867158009595 -5.438931443942415  1.464891069119211 -1.932330028996181 -5.373934600293736  1.955087092649627 -1.489613175355717 -5.319502697776375  2.318355026965356 -0.937054784961175 -5.279744576064058  2.524994411863564 -0.307899182343253 -5.257941630215678  2.574632820450045 0.3531084349228537 -5.254020561031156  2.465743861849647 1.006614152640354 -5.268052816559671  2.183897076015212 1.604484044160622 -5.301550147358176  1.722560240631265 2.07491696755195 -5.35506775502591  1.13806318635062 2.378906583716481 -5.422118662603529  1.742182153284979 2.73179858498085 5.854691697147836e-16  2.262480931380501 2.395264875892136 -2.601681534737615e-16  2.698000706832733 1.954727370266727 -3.903113804560263e-16  3.021530388777258 1.426473918441798 1.707421408502106e-16  3.223363606607101 0.8405687193648443 -2.844806418042028e-16  3.305434793487241 0.2261994274297442 -4.472186606099012e-16  3.269241566985055 -0.3926051469820059 3.171555149681837e-16  3.113478077610213 -0.9924495549400153 3.510830505762065e-16  2.840400132149515 -1.548806515270482 -1.707368614952523e-16  2.466120284856568 -2.042983582774378 9.732831365154574e-17  2.008125599488538 -2.460814027017948 -3.577575055983979e-16  1.482521285196868 -2.789563899556613 -4.886146623064541e-17  0.9057866143556688 -3.01678997208197 -2.439392613813594e-16  0.2964958724913082 -3.130681163554852 3.414395345104792e-16  -0.32338307292875 -3.126978161260848 2.926910878106614e-16  -1.29067345658392 -0.3506098753383553 -5.690421630247788  -1.068897680254163 -0.8451623229646739 -5.663999894259847  -0.6782440885714781 -1.219621806060448 -5.6187489875115  -0.168757542531344 -1.390394566692369 -5.560546895724229  0.3611301401510615 -1.294122251639114 -5.500717901478111  0.8191548613516448 -1.005201308695582 -5.449538098373106  1.16817203978903 -0.5892762115769014 -5.411042670828763  1.960898302630318 -0.551652302616722 -8.131516293641286e-17  1.751009740180289 -1.077278642631261 7.445724005953314e-16  1.394016468000002 -1.516729095803803 1.136104663605282e-15  0.9227767039454898 -1.830301465573364 3.434443593283319e-16  0.3780412068884804 -1.984007749105097 8.617772484356591e-16  -0.1885780664025548 -1.977994130030172 2.357202029695971e-16  -0.7327557451871473 -1.821291124380143 1.942410916395698e-17  -1.191068596016128 -1.491774666596192 2.975009434367945e-16  -1.480405544894888 -1.006855825633415 6.954512630084263e-16  -1.812414118534285 0.2561131097252937 -2.664867827914479  2.421751940242729 0.6298287624476981 -1.933377861698098  0.7556418177061754 1.42269463362527 -4.617654324361507  0.003134751711410342 1.574821943356493 -0.9318675177876981  1.015098001669947 1.51699057942374 -0.9441494884276413  0.6193243625380082 1.764115149411371 -1.862230514405671  -0.4757031201037318 1.549728101933577 -1.958273018773558  0.1126459993007786 1.698838152590054 -2.957602797129454  -0.3405660022430232 1.569615851499001 -4.678135257405353  1.818199099779932 0.7365610114574719 -3.763003518505052  -0.9541815370276669 1.23451227632913 -2.875526912859068  -1.269464226480212 1.016489154450913 -4.672047638709048  1.301562892980348 1.557566760682666 -2.802482532053872  -0.7813756340336595 1.414221906310649 -3.725761628685261  -1.58370798409762 0.5643609111372817 -3.581008460136619  -0.988817348255397 1.158392548936659 -1.014254585170146  -1.607700527190565 0.2800106654898483 -1.030081240453645  -1.388203055800784 0.7951310659851955 -1.943712885648593  0.8261955720421881 1.570157055202129 -3.620947225245673  1.681455131778566 1.410849015379531 -1.876189895849114  1.878739160554727 0.943024132521903 -0.9866418074548234  2.103426639579445 1.000735947836943 -2.593434794762663  1.62623803052506 0.6468498306152269 -4.727220189271843  -1.882943490361709 -0.1546739965127431 -1.761716647663214  0.05868355051519467 1.656538949473053 -3.863342338366238  2.465845305360337 0.2632819454094029 -2.663569745038379  1.994842599423799 0.5019775153043848 -0.4779055074204815  2.1671824130763 0.4980244878585698 -1.027636182799239  1.710213566460811 0.9718796190568162 -0.4957578884333736  1.845584590132108 0.2253887364997403 -4.583879812097906  1.579035044615276 0.2924902970866011 -5.101748935835201  1.409777182251665 0.7868327264427526 -5.07202467441607  -1.039178737375989 1.089168173550246 -5.170746090958521  -1.377687418630729 0.6683636420802941 -5.233117919580046  -1.641402128985454 0.4875654733502939 -4.648722230221863  -1.765467255797776 -0.2695484060062747 -1.079683539430899  -1.617858736076732 -0.08318463488274264 -0.5123563299218489  -1.474019211051276 0.4496529111656123 -0.5150171376928306  2.417677350191343 0.3274903893149403 -1.506992657970159 
[...]
<PointData  Vectors="displacement"> 
<DataArray  type="Float64"  Name="displacement"  NumberOfComponents="3" format="ascii">0.0000000000000000e+00 0.0000000000000000e+00 0.0000000000000000e+00  3.8012494356783544e-01 3.1488827097474092e-01 -5.6181389601668119e-01  -4.9090743685130206e-01 -1.3302156265040141e-01 -5.6114120910631071e-01  0.0000000000000000e+00 0.0000000000000000e+00 0.0000000000000000e+00  -4.5086530408617409e-01 3.4829456074453718e-01 -4.0332474765256265e-01  3.0625141218696456e-01 -2.7101948096868939e-01 -5.8579095133983228e-01  0.0000000000000000e+00 0.0000000000000000e+00 0.0000000000000000e+00  0.0000000000000000e+00 0.0000000000000000e+00 0.0000000000000000e+00  2.9418239489068682e-01 6.7621135372026700e-02 -2.6894768833466139e-02  4.5361833752153874e-01 1.3705922852822738e-01 -6.3409339517045735e-02  5.2543154124402691e-01 1.5630993095782930e-01 -1.3374983271970950e-01  5.6563111472936922e-01 1.7247259438672058e-01 -2.3560886922085147e-01  6.1684601087001389e-01 2.2205338628286472e-01 -3.5177482721123693e-01  6.3319291458775762e-01 2.7780074923442793e-01 -4.2587176127654436e-01  5.9324579706152047e-01 3.0041753964266654e-01 -4.6084920119038042e-01  5.2259924997303953e-01 3.0690265959730867e-01 -4.9467949665178196e-01  4.5227986647531021e-01 3.1660996374484718e-01 -5.3380046233072620e-01  2.0007317667039093e-01 4.6215348084524177e-01 -5.2463934178202865e-01  7.2498614195108668e-03 5.3435603526308695e-01 -5.0480250084986045e-01  -1.7422800280700071e-01 5.4954534433461510e-01 -4.8837680722629295e-01  -3.3554641890141590e-01 4.8932790517138419e-01 -5.0154142811355473e-01  -4.6341889948489134e-01 3.7681628774772552e-01 -5.1341751937374436e-01  -5.3727024563864012e-01 2.2451794267781011e-01 -5.3287554026911177e-01  -5.5270447830047731e-01 4.8521876712494576e-02 -5.4925139713783633e-01  -3.4486233559561458e-01 -3.4766792246806885e-02 -3.3695201526610839e-02  -4.8056236413854303e-01 -1.3273522526262857e-01 -5.1366799734076332e-02  -5.0097176424993473e-01 -2.3344493289967277e-01 -1.1837721273224862e-01  -5.4975765954835010e-01 -2.4898811593139455e-01 -2.2208339658406409e-01  -5.9563688757004551e-01 -2.4773293320168380e-01 -3.1574321241120246e-01  -5.9451559271803534e-01 -2.8811374152448488e-01 -3.8979325348645516e-01  -5.8383423023457803e-01 -2.7931920809158522e-01 -4.2293338039856199e-01  -5.7047951225902083e-01 -2.2033456123606149e-01 -4.5032378945954654e-01  -5.3725300061617220e-01 -1.7569058976754801e-01 -5.0655884714864008e-01  0.0000000000000000e+00 0.0000000000000000e+00 0.0000000000000000e+00  0.0000000000000000e+00 0.0000000000000000e+00 0.0000000000000000e+00  0.0000000000000000e+00 0.0000000000000000e+00 0.0000000000000000e+00  0.0000000000000000e+00 0.0000000000000000e+00 0.0000000000000000e+00  0.0000000000000000e+00 0.0000000000000000e+00 0.0000000000000000e+00  0.0000000000000000e+00 0.0000000000000000e+00 0.0000000000000000e+00  0.0000000000000000e+00 0.0000000000000000e+00 0.0000000000000000e+00  0.0000000000000000e+00 0.0000000000000000e+00 0.0000000000000000e+00  0.0000000000000000e+00 0.0000000000000000e+00 0.0000000000000000e+00  -5.0553943995780115e-01 2.5238666598056447e-01 -4.1043941375806064e-01  -5.3776137356516340e-01 1.4318931156112502e-01 -4.1634081991519367e-01  -5.4005678695458281e-01 3.1145323855660181e-02 -4.2887987711944903e-01  -5.0702133598663601e-01 -8.1867611662362103e-02 -4.3640706750325647e-01  -4.4975909159626792e-01 -1.9617645912545545e-01 -4.4437274091679840e-01  -3.5540629867350942e-01 -2.9484272527364247e-01 -4.5584657033044368e-01  -2.4017006440347941e-01 -3.6312077542319565e-01 -4.6083225877501327e-01  -1.1078643192810358e-01 -3.9818224975918415e-01 -4.6818667725183888e-01  2.6158891600053667e-02 -4.0142667547544864e-01 -4.9045026081671900e-01  1.1046705385819046e-01 -3.7517434021377094e-01 -5.1189885225339293e-01  2.0549400858540834e-01 -3.2694981340527057e-01 -5.4290732771716999e-01  2.3177011759128796e-01 -4.2689126714266135e-01 -5.4592197075196514e-01  2.0264446576551262e-01 -4.9404135399667676e-01 -4.7824133451914846e-01  2.1021284868515511e-01 -4.8215792889164288e-01 -3.8616375514035878e-01  2.0918303332631502e-01 -4.5082066629079171e-01 -3.1770624950086962e-01  1.9380303650510064e-01 -4.3418021852224553e-01 -2.6516214695216223e-01  1.5844891209544285e-01 -3.8648481212699354e-01 -1.9052512145658504e-01  1.4232637701601944e-01 -3.2204238896756299e-01 -1.3899782173367964e-01  1.0310424857459197e-01 -2.7925343917103290e-01 -9.0864425244745403e-02  5.1257777690764991e-02 -1.8153211274898101e-01 -2.2361811810779151e-02  0.0000000000000000e+00 0.0000000000000000e+00 0.0000000000000000e+00  0.0000000000000000e+00 0.0000000000000000e+00 0.0000000000000000e+00  0.0000000000000000e+00 0.0000000000000000e+00 0.0000000000000000e+00  0.0000000000000000e+00 0.0000000000000000e+00 0.0000000000000000e+00  0.0000000000000000e+00 0.0000000000000000e+00 0.0000000000000000e+00  0.0000000000000000e+00 0.0000000000000000e+00 0.0000000000000000e+00  0.0000000000000000e+00 0.0000000000000000e+00 0.0000000000000000e+00  0.0000000000000000e+00 0.0000000000000000e+00 0.0000000000000000e+00  0.0000000000000000e+00 0.0000000000000000e+00 0.0000000000000000e+00  0.0000000000000000e+00 0.0000000000000000e+00 0.0000000000000000e+00  0.0000000000000000e+00 0.0000000000000000e+00 0.0000000000000000e+00  0.0000000000000000e+00 0.0000000000000000e+00 0.0000000000000000e+00  0.0000000000000000e+00 0.0000000000000000e+00 0.0000000000000000e+00  0.0000000000000000e+00 0.0000000000000000e+00 0.0000000000000000e+00  0.0000000000000000e+00 0.0000000000000000e+00 0.0000000000000000e+00  -4.2139119080367982e-01 3.8775433651532948e-01 -3.8097276283190307e-01  -3.7330150806980961e-01 4.2684403396333509e-01 -3.5766217867522299e-01  -3.0086077012991408e-01 4.6339440840835094e-01 -3.2355984298399254e-01  -2.2587564416330666e-01 4.8153008773532646e-01 -2.6926084596038802e-01  -1.8052546566413066e-01 4.6167383818116003e-01 -2.0535984251465064e-01  -1.4130179782625774e-01 4.1254426948786976e-01 -1.3739442389049805e-01  -1.0732273314347737e-01 3.4058888809208709e-01 -7.2786870888283006e-02  -8.0427063664711917e-02 2.3404889079397934e-01 -9.9354102344038787e-03  -4.3027212244550896e-02 1.1742718499618135e-01 2.9966311754707587e-02  3.9804929212641710e-01 -1.8849118349945737e-01 -6.1015887659891643e-01  4.7173703409303891e-01 -7.5531416525079303e-02 -6.1091052818573555e-01  4.9467930256404868e-01 6.9119114526477607e-02 -5.9568591639798607e-01  4.7206574369777504e-01 2.2146413130615225e-01 -5.5797014761434927e-01  3.8443325406344003e-01 3.5804514844219337e-01 -5.1795119847209303e-01  2.6192732074992026e-01 4.6272995457092403e-01 -4.7974660156553395e-01  1.1854056433518163e-01 5.2692943022375693e-01 -4.4748988164118292e-01  -3.6124137237144818e-02 5.5829855403644391e-01 -4.3138241515279635e-01  -1.7111520755614118e-01 5.3408999373210386e-01 -4.1226419962701055e-01  -2.8303745106613709e-01 4.9675762412147534e-01 -4.0275748752261814e-01  -3.6843151538469182e-01 4.3113765220888617e-01 -3.9780267967464211e-01  0.0000000000000000e+00 0.0000000000000000e+00 0.0000000000000000e+00  0.0000000000000000e+00 0.0000000000000000e+00 0.0000000000000000e+00  0.0000000000000000e+00 0.0000000000000000e+00 0.0000000000000000e+00  0.0000000000000000e+00 0.0000000000000000e+00 0.0000000000000000e+00  0.0000000000000000e+00 0.0000000000000000e+00 0.0000000000000000e+00  0.0000000000000000e+00 0.0000000000000000e+00 0.0000000000000000e+00  0.0000000000000000e+00 0.0000000000000000e+00 0.0000000000000000e+00  0.0000000000000000e+00 0.0000000000000000e+00 0.0000000000000000e+00  0.0000000000000000e+00 0.0000000000000000e+00 0.0000000000000000e+00  0.0000000000000000e+00 0.0000000000000000e+00 0.0000000000000000e+00  0.0000000000000000e+00 0.0000000000000000e+00 0.0000000000000000e+00  0.0000000000000000e+00 0.0000000000000000e+00 0.0000000000000000e+00  0.0000000000000000e+00 0.0000000000000000e+00 0.0000000000000000e+00  0.0000000000000000e+00 0.0000000000000000e+00 0.0000000000000000e+00  0.0000000000000000e+00 0.0000000000000000e+00 0.0000000000000000e+00  -3.6339400468751387e-01 -2.9706180676842314e-01 -5.6742255649857565e-01  -1.8094681703947590e-01 -4.1245016050724426e-01 -5.7571265367537006e-01  3.8125053914238621e-02 -4.5254540783104708e-01 -5.7986933343852409e-01  2.5116226388449292e-01 -4.0229853643218882e-01 -5.9745389865047138e-01  4.2135225999832071e-01 -2.9134078468221186e-01 -6.0743857303483906e-01  5.0875358798904802e-01 -1.0648529858095845e-01 -6.0955443753712102e-01  4.9189526053684096e-01 1.1662390739727113e-01 -5.9341357443705933e-01  0.0000000000000000e+00 0.0000000000000000e+00 0.0000000000000000e+00  0.0000000000000000e+00 0.0000000000000000e+00 0.0000000000000000e+00  0.0000000000000000e+00 0.0000000000000000e+00 0.0000000000000000e+00  0.0000000000000000e+00 0.0000000000000000e+00 0.0000000000000000e+00  0.0000000000000000e+00 0.0000000000000000e+00 0.0000000000000000e+00  0.0000000000000000e+00 0.0000000000000000e+00 0.0000000000000000e+00  0.0000000000000000e+00 0.0000000000000000e+00 0.0000000000000000e+00  0.0000000000000000e+00 0.0000000000000000e+00 0.0000000000000000e+00  0.0000000000000000e+00 0.0000000000000000e+00 0.0000000000000000e+00  -7.3835537336335499e-01 1.0184400843817421e-01 -2.4873454906271211e-01  4.2621145362490748e-01 3.7511472303659343e-01 -1.7936136283488335e-01  -1.2877007080495664e-01 6.5972583388378925e-01 -4.1487015742592842e-01  -1.5628903225144136e-01 4.4745170077229668e-01 -7.8078505961730688e-02  6.2683351189908851e-02 4.4967085043767402e-01 -6.8750243351771892e-02  -9.1231467086987053e-02 6.4073338686101644e-01 -1.8176549468755490e-01  -4.1818936644306476e-01 5.7334213429858072e-01 -1.8683824339681321e-01  -3.1259895243223240e-01 6.9132121917639855e-01 -2.7599509263168542e-01  -4.8804628612154488e-01 4.9895280487958305e-01 -4.0499740872998730e-01  3.6354098618896175e-01 5.7571519022451267e-01 -4.1254874828487043e-01  -6.3859059861501888e-01 4.9418619776632022e-01 -2.4848513478197259e-01  -6.7465853976864720e-01 2.0114460769443337e-01 -4.1766109556837794e-01  8.6036558338849878e-02 6.8220117152454152e-01 -3.0419992573696741e-01  -6.0898762950426200e-01 4.9375173190102212e-01 -3.1395986078692417e-01  -7.6816174825085892e-01 1.5819498720064676e-01 -3.2354697679130384e-01  -3.8839211800085793e-01 3.3897742443107798e-01 -8.7489279075465040e-02  -4.9777505859956728e-01 1.2002700177903029e-01 -7.2530513797458215e-02  -6.5350476883413411e-01 3.1664804566128024e-01 -1.6827136505095655e-01  -8.0655712032857957e-02 7.1309810077503910e-01 -3.5290995807081105e-01  2.0950823771890822e-01 5.6217466778708114e-01 -1.6930689035248431e-01  2.9019951669006694e-01 3.3869949324359688e-01 -6.1923858321940396e-02  3.5198445117156596e-01 5.3795804013157034e-01 -2.9826536474790499e-01  2.4683174867932814e-01 5.3064849809045866e-01 -4.6703145959136455e-01  -6.4962516626143907e-01 1.0508156142725603e-02 -1.3699051765875750e-01  -3.5753857310537090e-01 6.5466141989201676e-01 -3.3711957095443001e-01  5.2630189732950849e-01 3.6603386115531172e-01 -3.2664467475903852e-01  2.3685148894220368e-01 1.3010277521766775e-01 -3.1716638720067698e-02  3.8145206888256739e-01 2.4404794981152592e-01 -5.9194122198733323e-02  1.8119943888536497e-01 2.0775417631241949e-01 -3.5154269456729621e-02  3.9819701510095740e-01 4.3520766087331991e-01 -4.8185817112813212e-01  3.0031181353365949e-01 4.4052429309621643e-01 -5.1624522958871011e-01  1.3623789881989667e-01 5.4077686910563860e-01 -4.8454067645914894e-01  -6.1384358884879153e-01 2.0867531924048693e-01 -4.7810951596379325e-01  -6.0677216529411238e-01 2.3115832225767841e-02 -4.9858304347484600e-01  -6.6548107962651049e-01 -1.2092855331069541e-02 -4.3127874839647407e-01  -5.1279064201158009e-01 -2.4648005629940609e-04 -6.7949598701954286e-02  -2.9759610179238910e-01 3.1117449425469599e-02 -3.8053390130684900e-02  -2.8099398783485396e-01 9.9968100945736729e-02 -3.9707434594852570e-02  4.5927903803420933e-01 2.6287138840868340e-01 -1.1077515920743498e-01  4.9737783973291816e-01 2.7613019924564325e-01 -2.0334965435863897e-01  3.7554695145653699e-01 3.7384403109019365e-01 -1.0538466512914664e-01  5.5053586939823773e-01 2.6850685411263503e-01 -2.8582503380948182e-01  5.8939167552113858e-01 3.3223095054364088e-01 -3.8332165873600382e-01  4.6421416476912336e-01 3.7462783529277555e-01 -2.5166506916885850e-01  5.2561160220753289e-01 4.4206239617143939e-01 -4.2409083433091477e-01  4.5546455021826843e-01 4.5258506500882728e-01 -4.4883863779000249e-01  4.8667231529659694e-01 4.8553689504879965e-01 -3.9790491110271309e-01  3.0565467518876394e-01 5.5916954161034393e-01 -4.3337660355382762e-01  -5.5383716115937662e-02 6.1027581594309155e-01 -4.5653236280049120e-01  -2.3624703747993239e-01 5.9697048034079869e-01 -4.5206964894405866e-01  6.2505225319650526e-02 6.2177591728984649e-01 -4.4474805010142204e-01  -4.1269123103366806e-01 5.0693109476170384e-01 -4.5331565628072196e-01  -5.3932477456045325e-01 3.7030010154402887e-01 -4.6383592200075813e-01  -3.2179217237010710e-01 6.0738738760444311e-01 -4.1031874043239730e-01  -6.0928293468226091e-01 3.6200125020900015e-01 -4.0968730152288219e-01  -6.2469441315586360e-01 -1.2020969096337586e-01 -1.6710841439881793e-01  -5.7308812524371766e-01 -6.8498510153540387e-02 -9.3059573457254366e-02  -5.9753365672502678e-01 7.7953548004298309e-02 -1.0157641811581844e-01  -7.0368062570470380e-01 -9.2649011817000401e-02 -3.2336785571996846e-01  -6.7021314783527963e-01 -8.7217891859887806e-02 -2.3720082060546449e-01  -7.0681505480772944e-01 6.1075863618737396e-02 -1.9342402154056001e-01  -7.1878654341940151e-01 -3.2739933883841270e-02 -3.8050249454255064e-01  -7.2661905280149863e-01 -7.1780855181842795e-02 -3.5733900552342396e-01  -7.6164409598292582e-01 1.3436797064253805e-01 -2.9332967571814167e-01  -7.3413172391215187e-01 1.8493850034905121e-01 -3.5914137053122197e-01  -2.4136117091913567e-01 1.6892804092875546e-01 -4.7139763988236334e-02  -1.8901251985488246e-01 2.3077297195552565e-01 -5.2100058388835094e-02  -4.5757632445997876e-01 2.3327784032562687e-01 -8.3090974616412072e-02  -1.1584135665919762e-01 2.6111057975782870e-01 -5.0279462088744398e-02  -4.8025033388344497e-02 2.7641616525212409e-01 -4.6234377070033215e-02  -2.7516957494812505e-01 4.0944933674925021e-01 -8.6612226216894350e-02  2.4976583253443010e-02 2.7927864277928965e-01 -4.3136885891285712e-02  1.0134318369148264e-01 2.4590168677278068e-01 -3.4885890074829493e-02  -4.9906229721145307e-02 4.5607033809884895e-01 -6.9240904284082028e-02  1.7761782791510411e-01 4.0586974327206676e-01 -6.3338571555647025e-02  -7.2936100115327585e-01 3.1040737409784869e-01 -2.4404042279344887e-01  -7.3085977990995732e-01 3.4296540030065786e-01 -2.7780993765414480e-01  -6.6287018126363062e-01 4.1682320236179571e-01 -2.1071219930498206e-01  -7.1808150710202467e-01 2.2629780579885195e-01 -2.0209114340832349e-01  -6.7529473738242873e-01 1.6431392189190333e-01 -1.5265009339727759e-01  3.2963433508363821e-01 4.7690164702711513e-01 -1.7194872909601536e-01  2.6860419978981831e-01 4.6748957723312978e-01 -1.0398897819780960e-01  2.7310036051311848e-01 5.5333308353453459e-01 -2.2769927069376317e-01  3.8837817153669429e-01 4.5928270384276471e-01 -2.4059190369564284e-01  4.4579344979747926e-01 4.6172603740851215e-01 -3.1786705196854109e-01  -2.4264850675813204e-01 6.6881186637137768e-01 -3.7542688347521019e-01  -4.3062633316610094e-01 5.8907279333954654e-01 -3.6512191623241752e-01  1.2272789897972806e-01 6.5564890515632612e-01 -4.1110650952866851e-01  1.5198235254901143e-01 6.7983504272151540e-01 -3.8647439643518000e-01  -1.0014780126650545e-01 6.9452867496892523e-01 -3.8253836296209492e-01  -2.2259675007622060e-01 6.9660329734804705e-01 -3.4414309278688260e-01  -1.3953795085720605e-01 5.6109078126615208e-01 -1.1980654632090766e-01  -5.6459272475465746e-03 5.6357066528277067e-01 -1.1722881527104202e-01  -2.9245313798142009e-01 5.2953899542220384e-01 -1.2739520953625885e-01  -2.5642026912077226e-01 6.2652628703628643e-01 -1.8527884892866492e-01  -4.2742615530488198e-01 4.6458582271501669e-01 -1.3463791499986713e-01  6.5655651702556883e-02 6.1911259282384790e-01 -1.7231146697118860e-01  1.4173600625352029e-01 5.3162385803134804e-01 -1.1258108950041031e-01  -3.8018113039351881e-01 6.5072167415768845e-01 -2.3637296308588435e-01  -2.0244913842004658e-01 6.9044163461213259e-01 -2.4275695550605614e-01  -1.0928703477198644e-01 7.1025253018516643e-01 -2.9426905995095221e-01  -9.9237385595675586e-03 6.7704166337415828e-01 -2.3781040954202329e-01  1.4964349233925325e-01 6.3022122098327493e-01 -2.4114411554708254e-01  -5.4072672246641351e-01 5.5924984628774999e-01 -2.2190806688554940e-01  -4.9315729785171619e-01 6.1628890123936952e-01 -2.5944117274029421e-01  -5.5926440536581989e-01 4.6390449672399392e-01 -1.7793373843378207e-01  -5.3818426522630858e-01 3.4707122118872219e-01 -1.2752833898454841e-01  -6.2975319314025080e-01 5.0062594016452944e-01 -2.7917420823350225e-01  -4.7555169237586198e-01 6.1935693083078547e-01 -2.8948253714165106e-01  -2.0453478592332866e-01 7.0715358974717346e-01 -3.1609773627154852e-01  1.1428101360713289e-02 7.0888209665467372e-01 -3.3547526868088662e-01  -4.9295078040117984e-01 5.8765991422891273e-01 -3.2007052568423072e-01  -3.3963670279061903e-01 6.7915053865171471e-01 -3.0697878012019852e-01  -5.5174165182165702e-01 5.0394046723340269e-01 -3.5542224175324516e-01  -6.6600692620550150e-01 3.6075106619748010e-01 -3.5907374866528241e-01  2.3001128372411794e-01 6.6008709416160016e-01 -3.7139473652956678e-01  3.7781383200311214e-01 5.7677523070205305e-01 -3.8274826952052499e-01  2.2985571251938686e-01 6.2379598384120660e-01 -3.0466507894428169e-01  -7.2095161032274735e-01 3.4064587831534754e-01 -3.0813457646223535e-01  -6.0057312588145340e-01 2.1712350967936370e-01 -1.1978722198746530e-01  6.3589027628990283e-02 -4.2647954544803962e-01 -2.4560222648164490e-01  -2.8387477417029455e-01 3.2924023159258943e-02 -1.3797556647462307e-02  -2.9629976408578579e-01 -3.9059885514384496e-01 -4.2221650768513752e-01  -2.7785560202618742e-01 -7.4178734719014428e-02 -3.2938781207678014e-02  -1.0360422499011548e-01 -2.2744386914709269e-01 -5.7091710235445049e-02  -5.0263290264329386e-01 -2.0607383889033656e-01 -4.0678069402401762e-01  -5.7140052602097358e-01 4.9640343699599264e-02 -3.7588086523000036e-01  -2.0774435814034747e-01 2.9603227193040538e-01 -6.0702226430385746e-02  -4.9369623436744658e-01 -2.3899454141211432e-01 -3.4094603195942186e-01  -4.1087914101321477e-01 3.8408112231398428e-01 -3.0209287367190457e-01  -2.5600085135512562e-01 -4.2406843384837350e-01 -3.5332927851529750e-01  -3.6212643082504226e-01 -3.1884037520645453e-01 -2.3135039975760438e-01  -1.6352214060892042e-01 -4.0490163301541693e-01 -2.3785857698980553e-01  -2.4717941498769913e-01 -3.1144716514528914e-01 -1.6289988938342900e-01  -4.5374406469309986e-01 -4.8528775603895936e-02 -1.2630142064681432e-01  -4.5015653204963985e-01 1.2814091009770004e-01 -1.1473984965125214e-01  -6.5019387365841591e-02 -4.6554940747714768e-01 -3.4760278222141455e-01  -5.5516425297510641e-01 -4.0216742983356316e-03 -2.3667108686655039e-01  -5.4550412525849157e-01 1.7641498727695043e-01 -2.4932795727336865e-01  4.8220206775197477e-02 -3.3827118070185386e-01 -1.5256196792870619e-01  -3.6288964340846341e-01 2.7067500140795797e-01 -1.0653427824511923e-01  -2.1763441515261192e-01 -1.8632186548748300e-01 -6.3608971706454423e-02  -1.1572631461089504e-01 -4.2386481266031079e-01 -4.3103877157123544e-01  -2.8297315713342732e-02 -3.7989411310114229e-01 -1.9221803890777250e-01  -2.5105512828326015e-01 1.3912616792210405e-01 -1.3440335038650381e-02  -3.0310049426919067e-01 4.1011243458715985e-01 -1.8768892718771191e-01  8.0752196909254836e-02 -4.6848588835842575e-01 -3.3407759134990783e-01  2.0227757408475287e-02 -4.6065595994611808e-01 -4.6341717150618289e-01  -4.7084687291456567e-01 3.1958944610985918e-01 -3.6672252637485286e-01  -1.6678971845437232e-01 1.6953467270758285e-01 2.906011424