<?xml version="1.0"?>
<VTKFile type="UnstructuredGrid"  version="0.1"  >
<UnstructuredGrid>
<Piece  NumberOfPoints="1268" NumberOfCells="4847">
<Points>
<DataArray  type="Float64"  NumberOfComponents="3"  format="ascii">1.994716987487452 0.01317707561264319 -1.202466945460223e-11  1.374072606111497 -0.08614134488653273 -5.388997575085332  -1.285941478930618 0.1916557790035214 -5.691288663606836  -1.59032616235459 -0.4515196446136259 1.626303258728257e-17  0.4950030257755884 2.521650519233041 -5.495391852657774  -0.4107718940653654 -2.429115409112172 -5.58531208084276  -0.9314707163843408 -3.006923447963563 4.87890977618477e-17  1.161824811771535 2.948440156756841 -3.391384395534658e-14  2.146749234505421 0.002696741478414759 -0.5615078450779066  2.330988047973839 -0.000873250973709995 -1.113141311680313  2.540713632977715 -0.1384292375506191 -1.637427654548237  2.645241452520652 -0.2872312815961211 -2.18637082393926  2.504842461151312 -0.2752146673621067 -2.746850782899552  2.287876352721185 -0.2088259978706829 -3.283011632728322  2.137771360922677 -0.2093380261300688 -3.844996501809416  1.970142554575494 -0.2193701374385486 -4.401638277082749  1.701580801829277 -0.1696632515169769 -4.915066532844666  1.398049690886424 0.4419377546899956 -5.387643705321969  1.183972204621215 0.9208338616597355 -5.413149504812257  0.7621482426349403 1.234356207118232 -5.461782499987256  0.2539805730796886 1.370727420898931 -5.519751404145364  -0.2689415860383004 1.319053689498898 -5.578906487138381  -0.7357170559581984 1.076180709179107 -5.631191713357971  -1.086003096318238 0.6812820615514149 -5.669884670156524  -1.65706961757681 -0.5275128747266272 -0.6240725009925172  -1.829082870387909 -0.8347372240299333 -1.153553189134448  -2.030635262011336 -1.097965926806997 -1.693320688638939  -2.148557703924963 -0.9683820133813712 -2.295450526931833  -2.119047321408695 -0.7521727279271558 -2.890676896601294  -1.972500555455803 -0.7106310836492745 -3.509380855831461  -1.885028119342598 -0.4902108162504233 -4.093718100793141  -1.832050776792238 -0.1313823297003599 -4.617858136599065  -1.636180550340053 0.1151199882480144 -5.165527944859976  -1.540434086810702 0.1014447694855235 -7.644826989049428e-17  -1.339902801239663 0.6191128040412099 2.218327606354497e-17  -0.9949589579071262 1.053322092476122 2.12059320661159e-17  -0.5243975458638882 1.346285776146202 7.754217898549941e-16  0.01399251627036286 1.481823287560149 3.252316763596149e-17  0.5696211504784076 1.47677978548424 -7.207855520904863e-17  1.105448032340458 1.331487337928338 1.951563910473908e-16  1.561367740818086 1.018090979386763 -2.179459114756194e-16  1.860006992193919 0.551530302300456 1.369433074745588e-16  -0.152869286718376 2.506583809965366 -5.568804938302105  -0.7781210310064858 2.335338381675429 -5.639249366957451  -1.340550096787874 2.011723800088065 -5.702178028336585  -1.803922993566052 1.555830170950866 -5.753534898075912  -2.144678763029901 1.000979069722826 -5.790734833138769  -2.346903237737564 0.3811866585909049 -5.812061421922149  -2.406990243842066 -0.2684488461825228 -5.817196438260218  -2.318433628103212 -0.9144163570965761 -5.805488779558074  -2.059391262210163 -1.511004864267824 -5.774580158166454  -1.615755841275718 -1.983465489741105 -5.72306417450185  -1.043145925381342 -2.287058241276404 -5.657361969815248  -0.6986882361605687 -2.420627649803484 -5.024556445072709  -0.8272574030199392 -2.685291244074475 -4.476216325063944  -0.8113210073272845 -3.118860027310894 -4.01596683617901  -0.7618552434953355 -3.481598098596065 -3.504026669625047  -0.7509882165597778 -3.609083979854663 -2.886473298216772  -0.7986167670519319 -3.732483084086931 -2.268445488219849  -0.8276969497603353 -3.810997815301134 -1.64593496945388  -0.7425506523451623 -3.557242155569485 -1.078322423839125  -0.7147449622328144 -3.21189056194362 -0.5511080601316157  -1.482234509376526 -2.778582553401298 -5.854479658363816e-16  -1.970737176894139 -2.437284655419533 2.764697292186607e-16  -2.362818572203899 -1.988727212877528 2.439101268600111e-16  -2.642390785384022 -1.462244173776716 5.051059276813266e-16  -2.812149102113852 -0.89052423419162 2.276851973687203e-16  -2.877946727920729 -0.2976446157883296 -1.219909928720168e-16  -2.842947107925845 0.2978601752284433 4.065446096494693e-17  -2.70313036896374 0.8776122116387211 -5.041496169361013e-16  -2.452324348076021 1.418519584933707 4.379274460317988e-16  -2.098265626135573 1.898294456130726 1.951060033519619e-16  -1.658391347368763 2.301023318502569 -1.789574489620802e-16  -1.154148079923361 2.619757341302747 -2.081203863085907e-15  -0.6042202207747882 2.851073703499478 -3.577841418755692e-16  -0.02416138323675775 2.990516581461941 4.065982498622179e-16  0.5710641261211448 3.028216945076794 -1.46882551317968e-16  0.6414151130412097 2.696325287154043 -4.983333021490838  0.771852374565919 2.778456367279237 -4.445188759107248  0.8805845204306011 2.73078881179073 -3.897720120696569  0.9481597620953167 2.69798349057175 -3.343104559074628  0.9815370707090804 2.778214865778854 -2.789250505759619  1.013475345489448 2.861817704396183 -2.235671116027784  1.055849759321274 2.898356228459238 -1.677594140621302  1.093646323460014 2.92793989028903 -1.118725590781912  1.124098871622056 2.957526991478201 -0.5594169689370629  0.2477015793419729 -2.415655802610486 -5.510682951113449  0.8844491790088972 -2.245867158009595 -5.438931443942415  1.464891069119211 -1.932330028996181 -5.373934600293736  1.955087092649627 -1.489613175355717 -5.319502697776375  2.318355026965356 -0.937054784961175 -5.279744576064058  2.524994411863564 -0.307899182343253 -5.257941630215678  2.574632820450045 0.3531084349228537 -5.254020561031156  2.465743861849647 1.006614152640354 -5.268052816559671  2.183897076015212 1.604484044160622 -5.301550147358176  1.722560240631265 2.07491696755195 -5.35506775502591  1.13806318635062 2.378906583716481 -5.422118662603529  1.742182153284979 2.73179858498085 5.854691697147836e-16  2.262480931380501 2.395264875892136 -2.601681534737615e-16  2.698000706832733 1.954727370266727 -3.903113804560263e-16  3.021530388777258 1.426473918441798 1.707421408502106e-16  3.223363606607101 0.8405687193648443 -2.844806418042028e-16  3.305434793487241 0.2261994274297442 -4.472186606099012e-16  3.269241566985055 -0.3926051469820059 3.171555149681837e-16  3.113478077610213 -0.9924495549400153 3.510830505762065e-16  2.840400132149515 -1.548806515270482 -1.707368614952523e-16  2.466120284856568 -2.042983582774378 9.732831365154574e-17  2.008125599488538 -2.460814027017948 -3.577575055983979e-16  1.482521285196868 -2.789563899556613 -4.886146623064541e-17  0.9057866143556688 -3.01678997208197 -2.439392613813594e-16  0.2964958724913082 -3.130681163554852 3.414395345104792e-16  -0.32338307292875 -3.126978161260848 2.926910878106614e-16  -1.29067345658392 -0.3506098753383553 -5.690421630247788  -1.068897680254163 -0.8451623229646739 -5.663999894259847  -0.6782440885714781 -1.219621806060448 -5.6187489875115  -0.168757542531344 -1.390394566692369 -5.560546895724229  0.3611301401510615 -1.294122251639114 -5.500717901478111  0.8191548613516448 -1.005201308695582 -5.449538098373106  1.16817203978903 -0.5892762115769014 -5.411042670828763  1.960898302630318 -0.551652302616722 -8.131516293641286e-17  1.751009740180289 -1.077278642631261 7.445724005953314e-16  1.394016468000002 -1.516729095803803 1.136104663605282e-15  0.9227767039454898 -1.830301465573364 3.434443593283319e-16  0.3780412068884804 -1.984007749105097 8.617772484356591e-16  -0.1885780664025548 -1.977994130030172 2.357202029695971e-16  -0.7327557451871473 -1.821291124380143 1.942410916395698e-17  -1.191068596016128 -1.491774666596192 2.975009434367945e-16  -1.480405544894888 -1.006855825633415 6.954512630084263e-16  -1.812414118534285 0.2561131097252937 -2.664867827914479  2.421751940242729 0.6298287624476981 -1.933377861698098  0.7556418177061754 1.42269463362527 -4.617654324361507  0.003134751711410342 1.574821943356493 -0.9318675177876981  1.015098001669947 1.51699057942374 -0.9441494884276413  0.6193243625380082 1.764115149411371 -1.862230514405671  -0.4757031201037318 1.549728101933577 -1.958273018773558  0.1126459993007786 1.698838152590054 -2.957602797129454  -0.3405660022430232 1.569615851499001 -4.678135257405353  1.818199099779932 0.7365610114574719 -3.763003518505052  -0.9541815370276669 1.23451227632913 -2.875526912859068  -1.269464226480212 1.016489154450913 -4.672047638709048  1.301562892980348 1.557566760682666 -2.802482532053872  -0.7813756340336595 1.414221906310649 -3.725761628685261  -1.58370798409762 0.5643609111372817 -3.581008460136619  -0.988817348255397 1.158392548936659 -1.014254585170146  -1.607700527190565 0.2800106654898483 -1.030081240453645  -1.388203055800784 0.7951310659851955 -1.943712885648593  0.8261955720421881 1.570157055202129 -3.620947225245673  1.681455131778566 1.410849015379531 -1.876189895849114  1.878739160554727 0.943024132521903 -0.9866418074548234  2.103426639579445 1.000735947836943 -2.593434794762663  1.62623803052506 0.6468498306152269 -4.727220189271843  -1.882943490361709 -0.1546739965127431 -1.761716647663214  0.05868355051519467 1.656538949473053 -3.863342338366238  2.465845305360337 0.2632819454094029 -2.663569745038379  1.994842599423799 0.5019775153043848 -0.4779055074204815  2.1671824130763 0.4980244878585698 -1.027636182799239  1.710213566460811 0.9718796190568162 -0.4957578884333736  1.845584590132108 0.2253887364997403 -4.583879812097906  1.579035044615276 0.2924902970866011 -5.101748935835201  1.409777182251665 0.7868327264427526 -5.07202467441607  -1.039178737375989 1.089168173550246 -5.170746090958521  -1.377687418630729 0.6683636420802941 -5.233117919580046  -1.641402128985454 0.4875654733502939 -4.648722230221863  -1.765467255797776 -0.2695484060062747 -1.079683539430899  -1.617858736076732 -0.08318463488274264 -0.5123563299218489  -1.474019211051276 0.4496529111656123 -0.5150171376928306  2.417677350191343 0.3274903893149403 -1.506992657970159 
[...]
<PointData  Vectors="displacement"> 
<DataArray  type="Float64"  Name="displacement"  NumberOfComponents="3" format="ascii">0.0000000000000000e+00 0.0000000000000000e+00 0.0000000000000000e+00  3.8849131842365892e-01 3.1944172484351602e-01 -5.8222295619865194e-01  -5.0215210098985863e-01 -1.3222405125918246e-01 -5.8153872730384215e-01  0.0000000000000000e+00 0.0000000000000000e+00 0.0000000000000000e+00  -4.5508391820030780e-01 3.5657433320314580e-01 -4.1868452177423776e-01  3.0687752734615381e-01 -2.7669162549041232e-01 -6.0368106735780636e-01  0.0000000000000000e+00 0.0000000000000000e+00 0.0000000000000000e+00  0.0000000000000000e+00 0.0000000000000000e+00 0.0000000000000000e+00  3.0181417350145884e-01 7.0499577763010704e-02 -2.6441274215933962e-02  4.6513224965834971e-01 1.4120922227272639e-01 -6.4433874679554956e-02  5.3810336502151468e-01 1.5993829491294265e-01 -1.3753286512386712e-01  5.7848378465133565e-01 1.7560270424077276e-01 -2.4259095181072093e-01  6.2994213334979499e-01 2.2555746506527574e-01 -3.6201323440868061e-01  6.4629862230718671e-01 2.8196805607151476e-01 -4.3883199583582533e-01  6.0532886589693069e-01 3.0465990227735551e-01 -4.7571896368292682e-01  5.3333016263136046e-01 3.1100246536212861e-01 -5.1157526188883240e-01  4.6176445812020228e-01 3.2084811282590742e-01 -5.5269901202339233e-01  2.0622779853170436e-01 4.7014230523405620e-01 -5.4457353779039142e-01  1.0294529073335106e-02 5.4467234326894309e-01 -5.2441496001522714e-01  -1.7450396197872711e-01 5.6127853934770300e-01 -5.0800603971112457e-01  -3.3930492882093233e-01 5.0082344690692138e-01 -5.2123537892522787e-01  -4.7030645157824030e-01 3.8671104385325683e-01 -5.3321498780707177e-01  -5.4676859296046676e-01 2.3203575789853090e-01 -5.5287287234327176e-01  -5.6355667727415737e-01 5.2890440961408373e-02 -5.6954063208327632e-01  -3.5415561929079081e-01 -3.6480607059755005e-02 -3.2877925732747185e-02  -4.9312018524565676e-01 -1.3671011663278893e-01 -5.2030634479209512e-02  -5.1434335219235761e-01 -2.3925332503213395e-01 -1.2199499875982368e-01  -5.6424693782003787e-01 -2.5435984760481878e-01 -2.2910569095461317e-01  -6.1088629598426181e-01 -2.5202351737804829e-01 -3.2559557963156793e-01  -6.0985049439370298e-01 -2.9235686751942075e-01 -4.0235888510725598e-01  -5.9869007445624101e-01 -2.8261878305723870e-01 -4.3719591317588907e-01  -5.8441018272803757e-01 -2.2175759241149454e-01 -4.6606931691222248e-01  -5.4980462761595950e-01 -1.7575933109223937e-01 -5.2454192907295416e-01  0.0000000000000000e+00 0.0000000000000000e+00 0.0000000000000000e+00  0.0000000000000000e+00 0.0000000000000000e+00 0.0000000000000000e+00  0.0000000000000000e+00 0.0000000000000000e+00 0.0000000000000000e+00  0.0000000000000000e+00 0.0000000000000000e+00 0.0000000000000000e+00  0.0000000000000000e+00 0.0000000000000000e+00 0.0000000000000000e+00  0.0000000000000000e+00 0.0000000000000000e+00 0.0000000000000000e+00  0.0000000000000000e+00 0.0000000000000000e+00 0.0000000000000000e+00  0.0000000000000000e+00 0.0000000000000000e+00 0.0000000000000000e+00  0.0000000000000000e+00 0.0000000000000000e+00 0.0000000000000000e+00  -5.1116950104065428e-01 2.5967267429769075e-01 -4.2603471017553785e-01  -5.4458590984403432e-01 1.4964502497670157e-01 -4.3189176862984768e-01  -5.4758129222769025e-01 3.6002537089091645e-02 -4.4488071679574925e-01  -5.1539092278247423e-01 -7.8633981038116044e-02 -4.5276967939583496e-01  -4.5833162133990235e-01 -1.9461097105837211e-01 -4.6081755056662183e-01  -3.6354232314631130e-01 -2.9508964552565609e-01 -4.7241368715923565e-01  -2.4768249812242163e-01 -3.6497874030044658e-01 -4.7715528063099016e-01  -1.1731763427739066e-01 -4.0127257252235599e-01 -4.8489689302710659e-01  2.1190299105820726e-02 -4.0554580059500872e-01 -5.0734824683945756e-01  1.0692468108386821e-01 -3.8040622039167110e-01 -5.2888605981207693e-01  2.0420785708559722e-01 -3.3262869614305640e-01 -5.6067943570149881e-01  2.3128890424043358e-01 -4.3482713571422660e-01 -5.6262509412269890e-01  2.0175646262574895e-01 -5.0321825834152722e-01 -4.9338868171326811e-01  2.0945750005885688e-01 -4.9169674483629872e-01 -3.9912667850745120e-01  2.0893589172535015e-01 -4.6050537481786635e-01 -3.2903295088650020e-01  1.9359461366317843e-01 -4.4442008114581322e-01 -2.7445455740194452e-01  1.5854641269830497e-01 -3.9633679067220334e-01 -1.9768213469222096e-01  1.4261132853822606e-01 -3.3034997337410354e-01 -1.4377648501039297e-01  1.0273036968058166e-01 -2.8656097121244833e-01 -9.3568367606128300e-02  5.0973313611836914e-02 -1.8683158873555347e-01 -2.3228435218879094e-02  0.0000000000000000e+00 0.0000000000000000e+00 0.0000000000000000e+00  0.0000000000000000e+00 0.0000000000000000e+00 0.0000000000000000e+00  0.0000000000000000e+00 0.0000000000000000e+00 0.0000000000000000e+00  0.0000000000000000e+00 0.0000000000000000e+00 0.0000000000000000e+00  0.0000000000000000e+00 0.0000000000000000e+00 0.0000000000000000e+00  0.0000000000000000e+00 0.0000000000000000e+00 0.0000000000000000e+00  0.0000000000000000e+00 0.0000000000000000e+00 0.0000000000000000e+00  0.0000000000000000e+00 0.0000000000000000e+00 0.0000000000000000e+00  0.0000000000000000e+00 0.0000000000000000e+00 0.0000000000000000e+00  0.0000000000000000e+00 0.0000000000000000e+00 0.0000000000000000e+00  0.0000000000000000e+00 0.0000000000000000e+00 0.0000000000000000e+00  0.0000000000000000e+00 0.0000000000000000e+00 0.0000000000000000e+00  0.0000000000000000e+00 0.0000000000000000e+00 0.0000000000000000e+00  0.0000000000000000e+00 0.0000000000000000e+00 0.0000000000000000e+00  0.0000000000000000e+00 0.0000000000000000e+00 0.0000000000000000e+00  -4.2508561522137395e-01 3.9644364953647554e-01 -3.9515702881204601e-01  -3.7650285825823576e-01 4.3615449792023486e-01 -3.7068458393324538e-01  -3.0329555852236695e-01 4.7341404983179974e-01 -3.3507324413175227e-01  -2.2776807659203840e-01 4.9201500533966969e-01 -2.7931755145745957e-01  -1.8206490701434183e-01 4.7202172667282422e-01 -2.1350917520880960e-01  -1.4270728833683191e-01 4.2229781446273790e-01 -1.4359065241852778e-01  -1.0830963160439618e-01 3.4921563683524676e-01 -7.6965048118787543e-02  -8.1198349753217561e-02 2.4034252403805870e-01 -1.1828505527220888e-02  -4.3742078320662785e-02 1.2098469920205318e-01 2.9950041266489046e-02  4.0066410191769664e-01 -1.9363790375383064e-01 -6.2795313118675578e-01  4.7625878691727513e-01 -7.9648837092689134e-02 -6.2864134987858789e-01  5.0028136644846322e-01 6.6695000742087632e-02 -6.1326484369689560e-01  4.7851124012794261e-01 2.2091363689960175e-01 -5.7509880903876087e-01  3.9076780496114732e-01 3.5951328604030108e-01 -5.3460389904254357e-01  2.6760957080692283e-01 4.6663677439511275e-01 -4.9601660013265236e-01  1.2313303932973275e-01 5.3254342275286271e-01 -4.6346994690923254e-01  -3.3279142522794243e-02 5.6534068034237017e-01 -4.4682438079987019e-01  -1.7022617616258837e-01 5.4184531319303431e-01 -4.2772133852867933e-01  -2.8393198381370666e-01 5.0529140008027029e-01 -4.1787083339051323e-01  -3.7112847280452160e-01 4.3971366469275852e-01 -4.1328602209404963e-01  0.0000000000000000e+00 0.0000000000000000e+00 0.0000000000000000e+00  0.0000000000000000e+00 0.0000000000000000e+00 0.0000000000000000e+00  0.0000000000000000e+00 0.0000000000000000e+00 0.0000000000000000e+00  0.0000000000000000e+00 0.0000000000000000e+00 0.0000000000000000e+00  0.0000000000000000e+00 0.0000000000000000e+00 0.0000000000000000e+00  0.0000000000000000e+00 0.0000000000000000e+00 0.0000000000000000e+00  0.0000000000000000e+00 0.0000000000000000e+00 0.0000000000000000e+00  0.0000000000000000e+00 0.0000000000000000e+00 0.0000000000000000e+00  0.0000000000000000e+00 0.0000000000000000e+00 0.0000000000000000e+00  0.0000000000000000e+00 0.0000000000000000e+00 0.0000000000000000e+00  0.0000000000000000e+00 0.0000000000000000e+00 0.0000000000000000e+00  0.0000000000000000e+00 0.0000000000000000e+00 0.0000000000000000e+00  0.0000000000000000e+00 0.0000000000000000e+00 0.0000000000000000e+00  0.0000000000000000e+00 0.0000000000000000e+00 0.0000000000000000e+00  0.0000000000000000e+00 0.0000000000000000e+00 0.0000000000000000e+00  -3.7334289978021834e-01 -2.9979760785110698e-01 -5.8811820316059460e-01  -1.8826170755986732e-01 -4.1834548631216678e-01 -5.9660007729181064e-01  3.4448205258245018e-02 -4.6016441241148248e-01 -6.0100703037099623e-01  2.5157892140341831e-01 -4.1035781738806260e-01 -6.1865393453540141e-01  4.2554098136117380e-01 -2.9792331717539294e-01 -6.2882721434676647e-01  5.1607448448447912e-01 -1.1031411655340347e-01 -6.3111406231038769e-01  5.0076427928677791e-01 1.1687530939759640e-01 -6.1458622596963119e-01  0.0000000000000000e+00 0.0000000000000000e+00 0.0000000000000000e+00  0.0000000000000000e+00 0.0000000000000000e+00 0.0000000000000000e+00  0.0000000000000000e+00 0.0000000000000000e+00 0.0000000000000000e+00  0.0000000000000000e+00 0.0000000000000000e+00 0.0000000000000000e+00  0.0000000000000000e+00 0.0000000000000000e+00 0.0000000000000000e+00  0.0000000000000000e+00 0.0000000000000000e+00 0.0000000000000000e+00  0.0000000000000000e+00 0.0000000000000000e+00 0.0000000000000000e+00  0.0000000000000000e+00 0.0000000000000000e+00 0.0000000000000000e+00  0.0000000000000000e+00 0.0000000000000000e+00 0.0000000000000000e+00  -7.5546933702776131e-01 1.0514926606303196e-01 -2.5655363825283595e-01  4.3686037098290537e-01 3.8346287599729306e-01 -1.8471452647190825e-01  -1.2853788342706446e-01 6.7437124785420199e-01 -4.3128214862406022e-01  -1.6065538755604836e-01 4.5942748905151637e-01 -7.8487433938590798e-02  6.4172270263136461e-02 4.6190692646790876e-01 -6.9155185496995036e-02  -9.2516026076355437e-02 6.5614164786929252e-01 -1.8668675404748256e-01  -4.2724460650464613e-01 5.8728277436869714e-01 -1.9199838919791837e-01  -3.1769439783035680e-01 7.0729338032124889e-01 -2.8564927500579551e-01  -4.9600038134666269e-01 5.1165515557874663e-01 -4.2090710006646942e-01  3.7284107777869108e-01 5.8678828209067246e-01 -4.2694352356230370e-01  -6.5188674986735773e-01 5.0630023132079105e-01 -2.5698734042686749e-01  -6.8806353645068530e-01 2.0839272544486254e-01 -4.3338892334934898e-01  8.9673955017289725e-02 6.9715747186815791e-01 -3.1395156092541326e-01  -6.2064407183851222e-01 5.0619339341075298e-01 -3.2579452932336522e-01  -7.8498567404996666e-01 1.6364266791948276e-01 -3.3501199413567095e-01  -3.9857464153190914e-01 3.4776861759749877e-01 -8.8117375562197384e-02  -5.1086633524365177e-01 1.2280681826663513e-01 -7.2900240706596536e-02  -6.6883199546381555e-01 3.2467543066407167e-01 -1.7267667123682762e-01  -8.0029738217092056e-02 7.2886146755157033e-01 -3.6581741573100562e-01  2.1536830262778461e-01 5.7542211789274100e-01 -1.7421941239768104e-01  2.9771531030835147e-01 3.4823543870597584e-01 -6.2504489815329606e-02  3.6102243425276781e-01 5.4918176036344324e-01 -3.0738671856167205e-01  2.5420086440874740e-01 5.4026941528031391e-01 -4.8461469171294780e-01  -6.6585034661322273e-01 1.0752743277794222e-02 -1.4048710909906198e-01  -3.6296239332767766e-01 6.7001451048538574e-01 -3.5012040501897024e-01  5.3827976532672228e-01 3.7277922021511556e-01 -3.3637001842235908e-01  2.4296397501280989e-01 1.3460470091859925e-01 -3.1214652612615395e-02  3.9137137305996950e-01 2.5115543745405200e-01 -5.9949602396781390e-02  1.8577124505765455e-01 2.1418225034948318e-01 -3.4642558236735489e-02  4.0761047447098087e-01 4.4220405137032998e-01 -4.9914707201472103e-01  3.0802913344571731e-01 4.4783619407962955e-01 -5.3535082931102362e-01  1.4165811745089410e-01 5.5097811655307616e-01 -5.0317780076909802e-01  -6.2538054822685973e-01 2.1605686269483076e-01 -4.9599222490597028e-01  -6.1924521086260542e-01 2.6988255207074867e-02 -5.1678709420014668e-01  -6.8006473091667574e-01 -9.1958807181723307e-03 -4.4685630907782747e-01  -5.2626163031066497e-01 -8.1558253628219609e-04 -6.8450166989208666e-02  -3.0558079880033689e-01 3.1250091935160242e-02 -3.7460926765440043e-02  -2.8871471427027018e-01 1.0207328600241969e-01 -3.9059753408874485e-02  4.7076322026288775e-01 2.6935802962024491e-01 -1.1372788338510084e-01  5.0928607304403539e-01 2.8187687620170210e-01 -2.0953093950217416e-01  3.8522739297343805e-01 3.8331253055697856e-01 -1.0797809087926624e-01  5.6291907040714650e-01 2.7345251309628221e-01 -2.9424694094897641e-01  6.0218478654054519e-01 3.3787943000082998e-01 -3.9483407858919572e-01  4.7538185392442295e-01 3.8217351613257494e-01 -2.5928261982453815e-01  5.3737002978993231e-01 4.4988624356038037e-01 -4.3791416882702650e-01  4.6596919028208406e-01 4.6018308841198002e-01 -4.6443226531554543e-01  4.9799047820104320e-01 4.9464732369214703e-01 -4.1040919151359695e-01  3.1405335135093548e-01 5.6957945570630397e-01 -4.4930654700420208e-01  -5.3444849913285637e-02 6.2315874979950669e-01 -4.7466443292903981e-01  -2.3810117508111278e-01 6.1061344422953356e-01 -4.7004678184293119e-01  6.6670377823864105e-02 6.3447276604611968e-01 -4.6203599341694018e-01  -4.1851669794771190e-01 5.1941089707313604e-01 -4.7110808552572736e-01  -5.4833944590212291e-01 3.8064629277882395e-01 -4.8188396946349921e-01  -3.2587906500665281e-01 6.2172543437226868e-01 -4.2643576291190793e-01  -6.2029706530334272e-01 3.7228281313905898e-01 -4.2553544415516759e-01  -6.4045578186189767e-01 -1.2285619836595618e-01 -1.7209536699158220e-01  -5.8782032537823081e-01 -7.0544557854101617e-02 -9.5075552991757364e-02  -6.1273477474662708e-01 7.9732886251063506e-02 -1.0341140431864587e-01  -7.2045933650187410e-01 -9.3123877593038903e-02 -3.3367118805535417e-01  -6.8666977244790484e-01 -8.8547401336052656e-02 -2.4448733386743682e-01  -7.2381106106743742e-01 6.2930200667537226e-02 -1.9911219059379678e-01  -7.3517718960196099e-01 -3.0765901936597943e-02 -3.9412117885021730e-01  -7.4369340341418366e-01 -7.1279017473095688e-02 -3.6932834838788331e-01  -7.7879387052844562e-01 1.3888092430841684e-01 -3.0313688034767894e-01  -7.4954298863056457e-01 1.9146179354487419e-01 -3.7259203246954886e-01  -2.4809787586294707e-01 1.7307160346341272e-01 -4.6762516204083018e-02  -1.9455657480206481e-01 2.3682701492124850e-01 -5.1678432037243198e-02  -4.6960127648765099e-01 2.3913800746171260e-01 -8.3513993417238183e-02  -1.1950675141612233e-01 2.6797029095484187e-01 -4.9923428244423619e-02  -4.9793839865680575e-02 2.8385618693814596e-01 -4.5687260806354310e-02  -2.8250823375659423e-01 4.2023222650593234e-01 -8.7195073761349787e-02  2.5143356112335077e-02 2.8715866147352631e-01 -4.2576108765163996e-02  1.0361059610441331e-01 2.5307391840611981e-01 -3.4317485197335698e-02  -5.1442148447135835e-02 4.6839170053572954e-01 -6.9477616779831067e-02  1.8221296282563226e-01 4.1707450564253118e-01 -6.3787412907436308e-02  -7.4551776334969710e-01 3.1844542283182703e-01 -2.5208126129114033e-01  -7.4634863562549969e-01 3.5204017638895158e-01 -2.8771211681454495e-01  -6.7759776580628162e-01 4.2722670192516871e-01 -2.1726973743262129e-01  -7.3479842481861035e-01 2.3218761410293584e-01 -2.0807966362788105e-01  -6.9164519412836267e-01 1.6850849498367301e-01 -1.5654798904740536e-01  3.3821149397088146e-01 4.8792498614423135e-01 -1.7703732062651373e-01  2.7564729625573636e-01 4.7942913127441011e-01 -1.0644659426067328e-01  2.8061864806808900e-01 5.6567224474458944e-01 -2.3463106795272223e-01  3.9816599303919986e-01 4.6905879493691482e-01 -2.4790430497435670e-01  4.5657580505698020e-01 4.7086591712755405e-01 -3.2732879241021440e-01  -2.4515232437898851e-01 6.8427381728032521e-01 -3.9013846293737253e-01  -4.3749629291896902e-01 6.0322772468854713e-01 -3.7943103746306561e-01  1.2787319772190722e-01 6.6905802931368241e-01 -4.2669580598755807e-01  1.5741390859980764e-01 6.9401128822537606e-01 -4.0034405605290124e-01  -9.9554204187539547e-02 7.0993306746579699e-01 -3.9724051153389484e-01  -2.2495662935959587e-01 7.1246412318187491e-01 -3.5707317192834731e-01  -1.4261544107999363e-01 5.7531375905742210e-01 -1.2234141724196124e-01  -5.4192143539015481e-03 5.7782710111290514e-01 -1.1960965378060738e-01  -2.9930731716449255e-01 5.4298919920299449e-01 -1.3010751365885165e-01  -2.6161396347522103e-01 6.4166820577618588e-01 -1.9043724755847938e-01  -4.3765711493460246e-01 4.7638229394893550e-01 -1.3746265028930874e-01  6.8097134788892483e-02 6.3386669466715850e-01 -1.7715839418316773e-01  1.4562616522111613e-01 5.4520559413702252e-01 -1.1499512454711391e-01  -3.8755561538822303e-01 6.6614796305971791e-01 -2.4386777163538695e-01  -2.0570089096851449e-01 7.0642067077284254e-01 -2.5026364589636935e-01  -1.0982965314403950e-01 7.2625459170826301e-01 -3.0413692375709561e-01  -8.7873774834914004e-03 6.9256940050551807e-01 -2.4511790631575342e-01  1.5441453365726998e-01 6.4439912181418690e-01 -2.4857063253370662e-01  -5.5215455323370644e-01 5.7274194739905859e-01 -2.2878121471628443e-01  -5.0262681194563108e-01 6.3096428392218107e-01 -2.6841233129113257e-01  -5.7198962516154639e-01 4.7545217434609932e-01 -1.8273364358911218e-01  -5.5130030199751578e-01 3.5590998971413845e-01 -1.3000446826091208e-01  -6.4229857557277270e-01 5.1305590103188425e-01 -2.8931605371439961e-01  -4.8414637211898748e-01 6.3401203495782488e-01 -3.0018124849767341e-01  -2.0682990226693082e-01 7.2314038170216099e-01 -3.2738842840226723e-01  1.3695255574766729e-02 7.2435668757419491e-01 -3.4694818007848127e-01  -5.0166662817689955e-01 6.0180303384070810e-01 -3.3244107227814962e-01  -3.4493051990205809e-01 6.9482595021117488e-01 -3.1834197272052123e-01  -5.6159846007636871e-01 5.1665661718633893e-01 -3.6930057513027081e-01  -6.7893194182970495e-01 3.7079193017399853e-01 -3.7276280663819344e-01  2.3681648933489738e-01 6.7387358476879089e-01 -3.8383626916548852e-01  3.8731804434509709e-01 5.8829544786500454e-01 -3.9492874435442948e-01  2.3648320576624557e-01 6.3718243146665088e-01 -3.1418253899074272e-01  -7.3573454163590568e-01 3.5000382083687648e-01 -3.1969082739571342e-01  -6.1543482245286241e-01 2.2260657081484916e-01 -1.2206588115922634e-01  6.0428907312504700e-02 -4.3571195124210438e-01 -2.5448653259318643e-01  -2.9113337528299649e-01 3.5180239196409321e-02 -1.5612481973853220e-02  -3.0477090532798101e-01 -3.9275456198885561e-01 -4.3607654011697267e-01  -2.8547241011859198e-01 -7.4683491068689614e-02 -3.4986784032751489e-02  -1.0825791724394905e-01 -2.3272954487721983e-01 -5.8933871679988967e-02  -5.1266262779762151e-01 -2.0467155426930175e-01 -4.2042040258645103e-01  -5.8082224905230273e-01 5.4636786942588188e-02 -3.8896753336829393e-01  -2.1115993475334585e-01 3.0388971222003602e-01 -6.4499061981156028e-02  -5.0524099812102174e-01 -2.3928649872045815e-01 -3.5223364065406865e-01  -4.1632810510098733e-01 3.9332539212255391e-01 -3.1314338314253137e-01  -2.6517998887337368e-01 -4.2841419682452037e-01 -3.6488734576576942e-01  -3.7193975248975170e-01 -3.2195166692597715e-01 -2.3938828505551013e-01  -1.7095300917561648e-01 -4.1100502532688560e-01 -2.4623736470309393e-01  -2.5528600138840790e-01 -3.1602828435738528e-01 -1.6851389095871466e-01  -4.6409645010260281e-01 -4.7077869995476813e-02 -1.3133012565034680e-01  -4.5966019131689151e-01 1.3291641802077156e-01 -1.2004443263241096e-01  -7.1311286067883048e-02 -4.7230446776803453e-01 -3.5957829595070478e-01  -5.6649836519735874e-01 -8.8962954830666945e-04 -2.4530349594563883e-01  -5.5558925724393582e-01 1.8263884927029583e-01 -2.5849682881205616e-01  4.5763771153151209e-02 -3.4604540487846064e-01 -1.5764718492970814e-01  -3.6997625470586759e-01 2.7802285461296705e-01 -1.1186759380933702e-01  -2.2459006646387125e-01 -1.8966827050790794e-01 -6.5902825903728063e-02  -1.2215192320564539e-01 -4.2904043001932296e-01 -4.4599624201404431e-01  -3.2747177122868863e-02 -3.8741588043273700e-01 -1.9909165024890194e-01  -2.5713174643933934e-01 1.4365093234105250e-01 -1.5348213472005713e-02  -3.0762138268707601e-01 4.1994726527793141e-01 -1.9528323163648992e-01  7.7107867797308355e-02 -4.7717529093065547e-01 -3.4573503089801461e-01  1.5622149280782146e-02 -4.6822010876179149e-01 -4.7894904723112069e-01  -4.7644106025734967e-01 3.2769847569285349e-01 -3.8015779956559143e-01  -1.7043719281086780e-01 1.7470520338354920e-01 -1.20726872