<?xml version="1.0"?>
<VTKFile type="UnstructuredGrid"  version="0.1"  >
<UnstructuredGrid>
<Piece  NumberOfPoints="1268" NumberOfCells="4847">
<Points>
<DataArray  type="Float64"  NumberOfComponents="3"  format="ascii">1.994716987487452 0.01317707561264319 -1.202466945460223e-11  1.374072606111497 -0.08614134488653273 -5.388997575085332  -1.285941478930618 0.1916557790035214 -5.691288663606836  -1.59032616235459 -0.4515196446136259 1.626303258728257e-17  0.4950030257755884 2.521650519233041 -5.495391852657774  -0.4107718940653654 -2.429115409112172 -5.58531208084276  -0.9314707163843408 -3.006923447963563 4.87890977618477e-17  1.161824811771535 2.948440156756841 -3.391384395534658e-14  2.146749234505421 0.002696741478414759 -0.5615078450779066  2.330988047973839 -0.000873250973709995 -1.113141311680313  2.540713632977715 -0.1384292375506191 -1.637427654548237  2.645241452520652 -0.2872312815961211 -2.18637082393926  2.504842461151312 -0.2752146673621067 -2.746850782899552  2.287876352721185 -0.2088259978706829 -3.283011632728322  2.137771360922677 -0.2093380261300688 -3.844996501809416  1.970142554575494 -0.2193701374385486 -4.401638277082749  1.701580801829277 -0.1696632515169769 -4.915066532844666  1.398049690886424 0.4419377546899956 -5.387643705321969  1.183972204621215 0.9208338616597355 -5.413149504812257  0.7621482426349403 1.234356207118232 -5.461782499987256  0.2539805730796886 1.370727420898931 -5.519751404145364  -0.2689415860383004 1.319053689498898 -5.578906487138381  -0.7357170559581984 1.076180709179107 -5.631191713357971  -1.086003096318238 0.6812820615514149 -5.669884670156524  -1.65706961757681 -0.5275128747266272 -0.6240725009925172  -1.829082870387909 -0.8347372240299333 -1.153553189134448  -2.030635262011336 -1.097965926806997 -1.693320688638939  -2.148557703924963 -0.9683820133813712 -2.295450526931833  -2.119047321408695 -0.7521727279271558 -2.890676896601294  -1.972500555455803 -0.7106310836492745 -3.509380855831461  -1.885028119342598 -0.4902108162504233 -4.093718100793141  -1.832050776792238 -0.1313823297003599 -4.617858136599065  -1.636180550340053 0.1151199882480144 -5.165527944859976  -1.540434086810702 0.1014447694855235 -7.644826989049428e-17  -1.339902801239663 0.6191128040412099 2.218327606354497e-17  -0.9949589579071262 1.053322092476122 2.12059320661159e-17  -0.5243975458638882 1.346285776146202 7.754217898549941e-16  0.01399251627036286 1.481823287560149 3.252316763596149e-17  0.5696211504784076 1.47677978548424 -7.207855520904863e-17  1.105448032340458 1.331487337928338 1.951563910473908e-16  1.561367740818086 1.018090979386763 -2.179459114756194e-16  1.860006992193919 0.551530302300456 1.369433074745588e-16  -0.152869286718376 2.506583809965366 -5.568804938302105  -0.7781210310064858 2.335338381675429 -5.639249366957451  -1.340550096787874 2.011723800088065 -5.702178028336585  -1.803922993566052 1.555830170950866 -5.753534898075912  -2.144678763029901 1.000979069722826 -5.790734833138769  -2.346903237737564 0.3811866585909049 -5.812061421922149  -2.406990243842066 -0.2684488461825228 -5.817196438260218  -2.318433628103212 -0.9144163570965761 -5.805488779558074  -2.059391262210163 -1.511004864267824 -5.774580158166454  -1.615755841275718 -1.983465489741105 -5.72306417450185  -1.043145925381342 -2.287058241276404 -5.657361969815248  -0.6986882361605687 -2.420627649803484 -5.024556445072709  -0.8272574030199392 -2.685291244074475 -4.476216325063944  -0.8113210073272845 -3.118860027310894 -4.01596683617901  -0.7618552434953355 -3.481598098596065 -3.504026669625047  -0.7509882165597778 -3.609083979854663 -2.886473298216772  -0.7986167670519319 -3.732483084086931 -2.268445488219849  -0.8276969497603353 -3.810997815301134 -1.64593496945388  -0.7425506523451623 -3.557242155569485 -1.078322423839125  -0.7147449622328144 -3.21189056194362 -0.5511080601316157  -1.482234509376526 -2.778582553401298 -5.854479658363816e-16  -1.970737176894139 -2.437284655419533 2.764697292186607e-16  -2.362818572203899 -1.988727212877528 2.439101268600111e-16  -2.642390785384022 -1.462244173776716 5.051059276813266e-16  -2.812149102113852 -0.89052423419162 2.276851973687203e-16  -2.877946727920729 -0.2976446157883296 -1.219909928720168e-16  -2.842947107925845 0.2978601752284433 4.065446096494693e-17  -2.70313036896374 0.8776122116387211 -5.041496169361013e-16  -2.452324348076021 1.418519584933707 4.379274460317988e-16  -2.098265626135573 1.898294456130726 1.951060033519619e-16  -1.658391347368763 2.301023318502569 -1.789574489620802e-16  -1.154148079923361 2.619757341302747 -2.081203863085907e-15  -0.6042202207747882 2.851073703499478 -3.577841418755692e-16  -0.02416138323675775 2.990516581461941 4.065982498622179e-16  0.5710641261211448 3.028216945076794 -1.46882551317968e-16  0.6414151130412097 2.696325287154043 -4.983333021490838  0.771852374565919 2.778456367279237 -4.445188759107248  0.8805845204306011 2.73078881179073 -3.897720120696569  0.9481597620953167 2.69798349057175 -3.343104559074628  0.9815370707090804 2.778214865778854 -2.789250505759619  1.013475345489448 2.861817704396183 -2.235671116027784  1.055849759321274 2.898356228459238 -1.677594140621302  1.093646323460014 2.92793989028903 -1.118725590781912  1.124098871622056 2.957526991478201 -0.5594169689370629  0.2477015793419729 -2.415655802610486 -5.510682951113449  0.8844491790088972 -2.245867158009595 -5.438931443942415  1.464891069119211 -1.932330028996181 -5.373934600293736  1.955087092649627 -1.489613175355717 -5.319502697776375  2.318355026965356 -0.937054784961175 -5.279744576064058  2.524994411863564 -0.307899182343253 -5.257941630215678  2.574632820450045 0.3531084349228537 -5.254020561031156  2.465743861849647 1.006614152640354 -5.268052816559671  2.183897076015212 1.604484044160622 -5.301550147358176  1.722560240631265 2.07491696755195 -5.35506775502591  1.13806318635062 2.378906583716481 -5.422118662603529  1.742182153284979 2.73179858498085 5.854691697147836e-16  2.262480931380501 2.395264875892136 -2.601681534737615e-16  2.698000706832733 1.954727370266727 -3.903113804560263e-16  3.021530388777258 1.426473918441798 1.707421408502106e-16  3.223363606607101 0.8405687193648443 -2.844806418042028e-16  3.305434793487241 0.2261994274297442 -4.472186606099012e-16  3.269241566985055 -0.3926051469820059 3.171555149681837e-16  3.113478077610213 -0.9924495549400153 3.510830505762065e-16  2.840400132149515 -1.548806515270482 -1.707368614952523e-16  2.466120284856568 -2.042983582774378 9.732831365154574e-17  2.008125599488538 -2.460814027017948 -3.577575055983979e-16  1.482521285196868 -2.789563899556613 -4.886146623064541e-17  0.9057866143556688 -3.01678997208197 -2.439392613813594e-16  0.2964958724913082 -3.130681163554852 3.414395345104792e-16  -0.32338307292875 -3.126978161260848 2.926910878106614e-16  -1.29067345658392 -0.3506098753383553 -5.690421630247788  -1.068897680254163 -0.8451623229646739 -5.663999894259847  -0.6782440885714781 -1.219621806060448 -5.6187489875115  -0.168757542531344 -1.390394566692369 -5.560546895724229  0.3611301401510615 -1.294122251639114 -5.500717901478111  0.8191548613516448 -1.005201308695582 -5.449538098373106  1.16817203978903 -0.5892762115769014 -5.411042670828763  1.960898302630318 -0.551652302616722 -8.131516293641286e-17  1.751009740180289 -1.077278642631261 7.445724005953314e-16  1.394016468000002 -1.516729095803803 1.136104663605282e-15  0.9227767039454898 -1.830301465573364 3.434443593283319e-16  0.3780412068884804 -1.984007749105097 8.617772484356591e-16  -0.1885780664025548 -1.977994130030172 2.357202029695971e-16  -0.7327557451871473 -1.821291124380143 1.942410916395698e-17  -1.191068596016128 -1.491774666596192 2.975009434367945e-16  -1.480405544894888 -1.006855825633415 6.954512630084263e-16  -1.812414118534285 0.2561131097252937 -2.664867827914479  2.421751940242729 0.6298287624476981 -1.933377861698098  0.7556418177061754 1.42269463362527 -4.617654324361507  0.003134751711410342 1.574821943356493 -0.9318675177876981  1.015098001669947 1.51699057942374 -0.9441494884276413  0.6193243625380082 1.764115149411371 -1.862230514405671  -0.4757031201037318 1.549728101933577 -1.958273018773558  0.1126459993007786 1.698838152590054 -2.957602797129454  -0.3405660022430232 1.569615851499001 -4.678135257405353  1.818199099779932 0.7365610114574719 -3.763003518505052  -0.9541815370276669 1.23451227632913 -2.875526912859068  -1.269464226480212 1.016489154450913 -4.672047638709048  1.301562892980348 1.557566760682666 -2.802482532053872  -0.7813756340336595 1.414221906310649 -3.725761628685261  -1.58370798409762 0.5643609111372817 -3.581008460136619  -0.988817348255397 1.158392548936659 -1.014254585170146  -1.607700527190565 0.2800106654898483 -1.030081240453645  -1.388203055800784 0.7951310659851955 -1.943712885648593  0.8261955720421881 1.570157055202129 -3.620947225245673  1.681455131778566 1.410849015379531 -1.876189895849114  1.878739160554727 0.943024132521903 -0.9866418074548234  2.103426639579445 1.000735947836943 -2.593434794762663  1.62623803052506 0.6468498306152269 -4.727220189271843  -1.882943490361709 -0.1546739965127431 -1.761716647663214  0.05868355051519467 1.656538949473053 -3.863342338366238  2.465845305360337 0.2632819454094029 -2.663569745038379  1.994842599423799 0.5019775153043848 -0.4779055074204815  2.1671824130763 0.4980244878585698 -1.027636182799239  1.710213566460811 0.9718796190568162 -0.4957578884333736  1.845584590132108 0.2253887364997403 -4.583879812097906  1.579035044615276 0.2924902970866011 -5.101748935835201  1.409777182251665 0.7868327264427526 -5.07202467441607  -1.039178737375989 1.089168173550246 -5.170746090958521  -1.377687418630729 0.6683636420802941 -5.233117919580046  -1.641402128985454 0.4875654733502939 -4.648722230221863  -1.765467255797776 -0.2695484060062747 -1.079683539430899  -1.617858736076732 -0.08318463488274264 -0.5123563299218489  -1.474019211051276 0.4496529111656123 -0.5150171376928306  2.417677350191343 0.3274903893149403 -1.506992657970159 
[...]
<PointData  Vectors="displacement"> 
<DataArray  type="Float64"  Name="displacement"  NumberOfComponents="3" format="ascii">0.0000000000000000e+00 0.0000000000000000e+00 0.0000000000000000e+00  3.7545823483117685e-01 3.1228302090541649e-01 -5.5046908029391006e-01  -4.8458750770630304e-01 -1.3333412701680189e-01 -5.4982456184908268e-01  0.0000000000000000e+00 0.0000000000000000e+00 0.0000000000000000e+00  -4.4828732635324092e-01 3.4370114587478656e-01 -3.9472280084563871e-01  3.0579125574901278e-01 -2.6784258017309615e-01 -5.7583160309742720e-01  0.0000000000000000e+00 0.0000000000000000e+00 0.0000000000000000e+00  0.0000000000000000e+00 0.0000000000000000e+00 0.0000000000000000e+00  2.8987402390110889e-01 6.6003421026270381e-02 -2.7145807526087019e-02  4.4714316214543864e-01 1.3471741025090936e-01 -6.2841199966041636e-02  5.1832487454629961e-01 1.5424418069166845e-01 -1.3164879857237954e-01  5.5843530931068608e-01 1.7067160622794147e-01 -2.3173164445085467e-01  6.0952039855051832e-01 2.2003122364392835e-01 -3.4608323010535763e-01  6.2586403582602790e-01 2.7539814801308438e-01 -4.1866248635276937e-01  5.8649567876267850e-01 2.9796706602190148e-01 -4.5257972026673304e-01  5.1661100149540518e-01 3.0453577417957978e-01 -4.8528521900313065e-01  4.4698958610421413e-01 3.1417435541248839e-01 -5.2329405886321334e-01  1.9667644794373590e-01 4.5763603492287913e-01 -5.1356489716752318e-01  5.6276605178491659e-03 5.2855468539149331e-01 -4.9392011464478469e-01  -1.7397337446620650e-01 5.4297336430664722e-01 -4.7748081671512577e-01  -3.3333498095174030e-01 4.8292877441074855e-01 -4.9061178002170969e-01  -4.5946018419547968e-01 3.7134887623846824e-01 -5.0243389852019749e-01  -5.3186037903836036e-01 2.2040758056679283e-01 -5.2178515254307434e-01  -5.4656682627728348e-01 4.6198955260408375e-02 -5.3799672797601272e-01  -3.3962771120147844e-01 -3.3804501569628539e-02 -3.4136392210002565e-02  -4.7350621648447022e-01 -1.3050322157311170e-01 -5.0995839917847362e-02  -4.9348871015696433e-01 -2.3018378580075693e-01 -1.1635899817368051e-01  -5.4167032237872970e-01 -2.4595241686823865e-01 -2.1816496262964458e-01  -5.8712126349911431e-01 -2.4527563610558836e-01 -3.1024963144990547e-01  -5.8595622687514182e-01 -2.8565765901331969e-01 -3.8279627084739865e-01  -5.7554019900443987e-01 -2.7736966720690148e-01 -4.1500295196396564e-01  -5.6268796263493503e-01 -2.1941421439245376e-01 -4.4158221385438395e-01  -5.3022221013505755e-01 -1.7552246333515550e-01 -4.9658091493136491e-01  0.0000000000000000e+00 0.0000000000000000e+00 0.0000000000000000e+00  0.0000000000000000e+00 0.0000000000000000e+00 0.0000000000000000e+00  0.0000000000000000e+00 0.0000000000000000e+00 0.0000000000000000e+00  0.0000000000000000e+00 0.0000000000000000e+00 0.0000000000000000e+00  0.0000000000000000e+00 0.0000000000000000e+00 0.0000000000000000e+00  0.0000000000000000e+00 0.0000000000000000e+00 0.0000000000000000e+00  0.0000000000000000e+00 0.0000000000000000e+00 0.0000000000000000e+00  0.0000000000000000e+00 0.0000000000000000e+00 0.0000000000000000e+00  0.0000000000000000e+00 0.0000000000000000e+00 0.0000000000000000e+00  -5.0224395168001046e-01 2.4837609884857570e-01 -4.0177234386158123e-01  -5.3382262398240010e-01 1.3970099092520938e-01 -4.0769150900456175e-01  -5.3573672546465367e-01 2.8553568577818364e-02 -4.2003294816737152e-01  -5.0226946324388189e-01 -8.3524199210362193e-02 -4.2731740329898754e-01  -4.4489543672541321e-01 -1.9687293557717514e-01 -4.3531259549529788e-01  -3.5086444257464511e-01 -2.9451082747132196e-01 -4.4663393744566876e-01  -2.3599809602535410e-01 -3.6191347566602822e-01 -4.5178701805143545e-01  -1.0722108225961281e-01 -3.9628514329222664e-01 -4.5887562421405886e-01  2.8844859750914002e-02 -3.9901034305884953e-01 -4.8105627740269025e-01  1.1235210831939751e-01 -3.7217978583803124e-01 -5.0246075693453418e-01  2.0610672594047602e-01 -3.2372522940639292e-01 -5.3302646813776078e-01  2.3194146570100663e-01 -4.2242524349789756e-01 -5.3662789324519555e-01  2.0304958816381624e-01 -4.8888513804398476e-01 -4.6981615580367586e-01  2.1053138604465360e-01 -4.7681427381603902e-01 -3.7894924387066092e-01  2.0925022286334519e-01 -4.4542348490875167e-01 -3.1139622076420947e-01  1.9385320089128399e-01 -4.2847054892681496e-01 -2.5999420130788742e-01  1.5833056512331917e-01 -3.8100873616485958e-01 -1.8654198044374362e-01  1.4212060599329401e-01 -3.1741691728203847e-01 -1.3631943347224973e-01  1.0327410045403741e-01 -2.7517851272463573e-01 -8.9341792699453040e-02  5.1391190009158809e-02 -1.7856188250950383e-01 -2.1869826416741549e-02  0.0000000000000000e+00 0.0000000000000000e+00 0.0000000000000000e+00  0.0000000000000000e+00 0.0000000000000000e+00 0.0000000000000000e+00  0.0000000000000000e+00 0.0000000000000000e+00 0.0000000000000000e+00  0.0000000000000000e+00 0.0000000000000000e+00 0.0000000000000000e+00  0.0000000000000000e+00 0.0000000000000000e+00 0.0000000000000000e+00  0.0000000000000000e+00 0.0000000000000000e+00 0.0000000000000000e+00  0.0000000000000000e+00 0.0000000000000000e+00 0.0000000000000000e+00  0.0000000000000000e+00 0.0000000000000000e+00 0.0000000000000000e+00  0.0000000000000000e+00 0.0000000000000000e+00 0.0000000000000000e+00  0.0000000000000000e+00 0.0000000000000000e+00 0.0000000000000000e+00  0.0000000000000000e+00 0.0000000000000000e+00 0.0000000000000000e+00  0.0000000000000000e+00 0.0000000000000000e+00 0.0000000000000000e+00  0.0000000000000000e+00 0.0000000000000000e+00 0.0000000000000000e+00  0.0000000000000000e+00 0.0000000000000000e+00 0.0000000000000000e+00  0.0000000000000000e+00 0.0000000000000000e+00 0.0000000000000000e+00  -4.1920106813756980e-01 3.8288059669831614e-01 -3.7311840910067429e-01  -3.7140029543502562e-01 4.2164462826613086e-01 -3.5042100482884408e-01  -2.9940354050733231e-01 4.5778628287678363e-01 -3.1715978013107710e-01  -2.2474267528908948e-01 4.7565268786969167e-01 -2.6367492496158745e-01  -1.7960492806614448e-01 4.5587058609523079e-01 -2.0084297402578677e-01  -1.4047104626714732e-01 4.0707198758106666e-01 -1.3396622203727390e-01  -1.0673704300842594e-01 3.3574680483899028e-01 -7.0485948206716054e-02  -7.9974415264738821e-02 2.3051267048916110e-01 -8.9164400702823696e-03  -4.2622512410148479e-02 1.1542912994507600e-01 2.9942233327510788e-02  3.9649985774760577e-01 -1.8562425313465580e-01 -6.0026905343045234e-01  4.6912173494629961e-01 -7.3286108330578192e-02 -6.0103696834221476e-01  4.9148599564206680e-01 7.0395411155123933e-02 -5.8591457106733036e-01  4.6841882549219865e-01 2.2166874783903598e-01 -5.4845147346550704e-01  3.8088585060603031e-01 3.5712630233759696e-01 -5.0869865471439302e-01  2.5878908386717048e-01 4.6043567144773140e-01 -4.7070912895150635e-01  1.1604050115344282e-01 5.2368759110745244e-01 -4.3861891802610986e-01  -3.7571087397969730e-02 5.5425119469559458e-01 -4.2279731546910926e-01  -1.7149639421857688e-01 5.2967686141846171e-01 -4.0366156031079509e-01  -2.8241459132673752e-01 4.9194965136550345e-01 -3.9436563821399506e-01  -3.6676203676103869e-01 4.2635277904184615e-01 -3.8921850637120042e-01  0.0000000000000000e+00 0.0000000000000000e+00 0.0000000000000000e+00  0.0000000000000000e+00 0.0000000000000000e+00 0.0000000000000000e+00  0.0000000000000000e+00 0.0000000000000000e+00 0.0000000000000000e+00  0.0000000000000000e+00 0.0000000000000000e+00 0.0000000000000000e+00  0.0000000000000000e+00 0.0000000000000000e+00 0.0000000000000000e+00  0.0000000000000000e+00 0.0000000000000000e+00 0.0000000000000000e+00  0.0000000000000000e+00 0.0000000000000000e+00 0.0000000000000000e+00  0.0000000000000000e+00 0.0000000000000000e+00 0.0000000000000000e+00  0.0000000000000000e+00 0.0000000000000000e+00 0.0000000000000000e+00  0.0000000000000000e+00 0.0000000000000000e+00 0.0000000000000000e+00  0.0000000000000000e+00 0.0000000000000000e+00 0.0000000000000000e+00  0.0000000000000000e+00 0.0000000000000000e+00 0.0000000000000000e+00  0.0000000000000000e+00 0.0000000000000000e+00 0.0000000000000000e+00  0.0000000000000000e+00 0.0000000000000000e+00 0.0000000000000000e+00  0.0000000000000000e+00 0.0000000000000000e+00 0.0000000000000000e+00  -3.5784795796918617e-01 -2.9540693671154911e-01 -5.5592871810452138e-01  -1.7691480770666584e-01 -4.0905478789517785e-01 -5.6410143440805705e-01  4.0098031607668026e-02 -4.4822318659426830e-01 -5.6811729528316990e-01  2.5084275656250010e-01 -3.9776490696297878e-01 -5.8566711054517362e-01  4.1893435201521895e-01 -2.8766978528130216e-01 -5.9554196024451300e-01  5.0460118945600929e-01 -1.0438133285117843e-01 -5.9756671795166316e-01  4.8690846188333842e-01 1.1642889320411885e-01 -5.8163962337179342e-01  0.0000000000000000e+00 0.0000000000000000e+00 0.0000000000000000e+00  0.0000000000000000e+00 0.0000000000000000e+00 0.0000000000000000e+00  0.0000000000000000e+00 0.0000000000000000e+00 0.0000000000000000e+00  0.0000000000000000e+00 0.0000000000000000e+00 0.0000000000000000e+00  0.0000000000000000e+00 0.0000000000000000e+00 0.0000000000000000e+00  0.0000000000000000e+00 0.0000000000000000e+00 0.0000000000000000e+00  0.0000000000000000e+00 0.0000000000000000e+00 0.0000000000000000e+00  0.0000000000000000e+00 0.0000000000000000e+00 0.0000000000000000e+00  0.0000000000000000e+00 0.0000000000000000e+00 0.0000000000000000e+00  -7.2875392745803469e-01 1.0003545756042165e-01 -2.4437681063961328e-01  4.2026381384504330e-01 3.7040163260110121e-01 -1.7639028595826933e-01  -1.2882025354571799e-01 6.5151355994591054e-01 -4.0575279713603951e-01  -1.5383864122516125e-01 4.4071369631306484e-01 -7.7832986826911130e-02  6.1842830161335217e-02 4.4278479755918215e-01 -6.8510376705027881e-02  -9.0485780802984903e-02 6.3207746595278680e-01 -1.7903404115526728e-01  -4.1309122977658663e-01 5.6551948560279708e-01 -1.8396357792141838e-01  -3.0969638594614640e-01 6.8236772574550109e-01 -2.7063126817084637e-01  -4.8351099044974793e-01 4.9189153306699246e-01 -3.9616715008849596e-01  3.5837391952224779e-01 5.6945908403019130e-01 -4.0454292270229553e-01  -6.3109975257722828e-01 4.8741972841209269e-01 -2.4375654956783188e-01  -6.6709979495289440e-01 1.9718650807572918e-01 -4.0893962364318981e-01  8.4043551038615785e-02 6.7379354295729799e-01 -2.9878075426953565e-01  -6.0240515383842530e-01 4.8682655846720818e-01 -3.0738831151642665e-01  -7.5871269934012653e-01 1.5521530705283448e-01 -3.1717328815566243e-01  -3.8266988614741027e-01 3.3402652477105832e-01 -8.7118354787130259e-02  -4.9041461633208655e-01 1.1845343351532599e-01 -7.2307456701997369e-02  -6.4488948733866580e-01 3.1214743628203384e-01 -1.6580826726472944e-01  -8.0945981203303680e-02 7.0424873882360262e-01 -3.4573484777551794e-01  2.0624352378400695e-01 5.5472180505428270e-01 -1.6657972171242336e-01  2.8597339424224089e-01 3.3333418204287341e-01 -6.1593884943915593e-02  3.4695717107327428e-01 5.3162960476959575e-01 -2.9319580909318460e-01  2.4275852875998749e-01 5.2520751531188092e-01 -4.5725767755087171e-01  -6.4052191674313652e-01 1.0379637889446852e-02 -1.3503840697007213e-01  -3.5443670552228029e-01 6.4607874385396269e-01 -3.2989791018617626e-01  5.1961300131788901e-01 3.6220133660357262e-01 -3.2123769776520550e-01  2.3340201771403360e-01 1.2757215591133983e-01 -3.1983007700637812e-02  3.7586898684826164e-01 2.4004864178903101e-01 -5.8770727967014227e-02  1.7862137281926699e-01 2.0413707542215012e-01 -3.5422451367383347e-02  3.9296485433406508e-01 4.3122669383386264e-01 -4.7224875594074184e-01  2.9603107107268861e-01 4.3637456375648898e-01 -5.0562945134159143e-01  1.3326529553216512e-01 5.3502234064641019e-01 -4.7418581058492726e-01  -6.0731289364420382e-01 2.0464588897867708e-01 -4.6819593109574420e-01  -5.9973953904422606e-01 2.1069976430890033e-02 -4.8848657678258300e-01  -6.5729269261139633e-01 -1.3597513819561896e-02 -4.2264008761014449e-01  -5.0521715997917616e-01 6.6305157511211522e-05 -6.7661109086860557e-02  -2.9309575424947909e-01 3.1036941057321285e-02 -3.8369643095604804e-02  -2.7664681254264223e-01 9.8779319562762327e-02 -4.0049864991275608e-02  4.5283919678803225e-01 2.5920701059434698e-01 -1.0913592279069535e-01  4.9071587496706714e-01 2.7286531733482955e-01 -1.9991526307194896e-01  3.7011781793605503e-01 3.6850879154724825e-01 -1.0394723091587063e-01  5.4361371015312687e-01 2.6568299519111904e-01 -2.8114869073543486e-01  5.8224132049644162e-01 3.2900636634381558e-01 -3.7691698602429408e-01  4.5798061147866759e-01 3.7035304398810076e-01 -2.4743471310027557e-01  5.1905277871448208e-01 4.3761700090997568e-01 -4.1640068818724457e-01  4.4961895100646537e-01 4.4826509155120925e-01 -4.4016831284463215e-01  4.8036236809424654e-01 4.8037647382878429e-01 -3.9094706994906542e-01  3.0100070957076680e-01 5.5328326277449635e-01 -4.2451995889838634e-01  -5.6385659635488458e-02 6.0304240743778148e-01 -4.4646333113296788e-01  -2.3511475162850329e-01 5.8934008247701430e-01 -4.4208684800894449e-01  6.0242213484535075e-02 6.1463117316760085e-01 -4.3514154522085724e-01  -4.0933306189671448e-01 4.9998774009882657e-01 -4.4344069622680987e-01  -5.3418760252993380e-01 3.6458333903539242e-01 -4.5382199107741761e-01  -3.1941915192954112e-01 5.9937826791215676e-01 -4.0136925583186234e-01  -6.0304613592117606e-01 3.5632085298168720e-01 -4.0089389766770389e-01  -6.1586742677101103e-01 -1.1870752264734248e-01 -1.6432638048877282e-01  -5.6481765660476080e-01 -6.7349373699970919e-02 -9.1933736618985323e-02  -5.8899175169355344e-01 7.6951113964587342e-02 -1.0054497581295811e-01  -6.9428959766280651e-01 -9.2316585718285771e-02 -3.1762706157036852e-01  -6.6099827547250833e-01 -8.6433138686750649e-02 -2.3313855047354609e-01  -6.9728115852897454e-01 6.0061408353203567e-02 -1.9025180881717582e-01  -7.0959586383611584e-01 -3.3746060827977403e-02 -3.7293758730321819e-01  -7.1705548152148624e-01 -7.1981415577072855e-02 -3.5066593983969513e-01  -7.5201851531938457e-01 1.3189801316379141e-01 -2.8786896159941594e-01  -7.2546333321808354e-01 1.8137137677321030e-01 -3.5167443102032475e-01  -2.3756939270511343e-01 1.6658897657423347e-01 -4.7333619276049378e-02  -1.8589620800761439e-01 2.2736183949745239e-01 -5.2315353823410141e-02  -4.5081622660128751e-01 2.2997220121742740e-01 -8.2835929040955741e-02  -1.1378249179202318e-01 2.5724906229932887e-01 -5.0457345860723667e-02  -4.7035842790089918e-02 2.7221968284638132e-01 -4.6524886998109062e-02  -2.7104604550992889e-01 4.0337780579666516e-01 -8.6270009885636087e-02  2.4874479836053134e-02 2.7483712873374938e-01 -4.3432096843875480e-02  1.0005973900252448e-01 2.4186071541341717e-01 -3.5188717942720125e-02  -4.9046265822238040e-02 4.4914161086093957e-01 -6.9092511040705171e-02  1.7503330021135094e-01 3.9956447293589575e-01 -6.3075725039629910e-02  -7.2027874012253890e-01 3.0593541572304217e-01 -2.3956249081183925e-01  -7.2214673800479801e-01 3.3792691949090864e-01 -2.7230196501539655e-01  -6.5458582941091448e-01 4.1100172224293197e-01 -2.0705614206303963e-01  -7.0869235673970143e-01 2.2301684154580464e-01 -1.9875022046101107e-01  -6.6611278954459685e-01 1.6196591740983099e-01 -1.5047099098201208e-01  3.2484556663262826e-01 4.7069104117668792e-01 -1.6912355768243822e-01  2.6465726093392311e-01 4.6076822604354684e-01 -1.0262467242990179e-01  2.6891764695314008e-01 5.4638766484586876e-01 -2.2384972408852302e-01  3.8292572118604828e-01 4.5376772351246453e-01 -2.3653042173048144e-01  4.3978298460208043e-01 4.5655678921640247e-01 -3.1260783938650921e-01  -2.4117225912622980e-01 6.6015986896340495e-01 -3.6725343026296131e-01  -4.2670636357697733e-01 5.8117862766622030e-01 -3.5717698259268493e-01  1.1990716683857909e-01 6.4809992489850643e-01 -4.0243807066447940e-01  1.4899277498360586e-01 6.7185306912256304e-01 -3.7876007044208215e-01  -1.0041029467448789e-01 6.8588698914082868e-01 -3.7436787260610938e-01  -2.2121044397811582e-01 6.8771518395599263e-01 -3.3695844485688192e-01  -1.3780253199604880e-01 5.5309612596379532e-01 -1.1838748637610388e-01  -5.7618306038313095e-03 5.5555379476253453e-01 -1.1590350291046853e-01  -2.8859751540669676e-01 5.2198043525111815e-01 -1.2587550407699993e-01  -2.5348352164830207e-01 6.1802520777168735e-01 -1.8241163314560202e-01  -4.2167336275769074e-01 4.5795282851762842e-01 -1.3305230341723492e-01  6.4308855454965758e-02 6.1081621185616963e-01 -1.6962117794508397e-01  1.3956032649767747e-01 5.2398131671542170e-01 -1.1123928147238195e-01  -3.7600985660666530e-01 6.4206644752522857e-01 -2.3220542454969595e-01  -2.0058808663657912e-01 6.8147030689870125e-01 -2.3858856372444656e-01  -1.0893602503790667e-01 7.0126807310110961e-01 -2.8878511600698842e-01  -1.0525608904928851e-02 6.6831735106077894e-01 -2.3375353348316419e-01  1.4700465841213944e-01 6.2224915553899784e-01 -2.3702105602658030e-01  -5.3428755459923338e-01 5.5169063361836523e-01 -2.1808333760702023e-01  -4.8780498909562681e-01 6.0807348465474420e-01 -2.5445658834825785e-01  -5.5210808220086272e-01 4.5742304408657858e-01 -1.7525259420892925e-01  -5.3081084231387765e-01 3.4209880374740559e-01 -1.2613423730058529e-01  -6.2267748998156214e-01 4.9369455646469013e-01 -2.7353984521309138e-01  -4.7068433006205479e-01 6.1116331811943103e-01 -2.8353894639051030e-01  -2.0319307976800169e-01 6.9818691198888994e-01 -3.0982379998522303e-01  1.0210319383128661e-02 7.0018803049554035e-01 -3.2909771632479295e-01  -4.8800964534690494e-01 5.7976967484581532e-01 -3.1320078953391428e-01  -3.3661430248079932e-01 6.7037281473289412e-01 -3.0066514207318912e-01  -5.4615637145914686e-01 4.9686918874564651e-01 -3.4771758099079736e-01  -6.5871237452956544e-01 3.5519679089226452e-01 -3.5147769421930392e-01  2.2624515439633067e-01 6.5232270942017312e-01 -3.6447371129829542e-01  3.7252768026610872e-01 5.7027010501155473e-01 -3.7597323493339907e-01  2.2618316944231798e-01 6.1625974607485101e-01 -2.9937569656641411e-01  -7.1263071802162681e-01 3.3546275546712340e-01 -3.0171290348634783e-01  -5.9222205265419503e-01 2.1404036798625006e-01 -1.1850472390845429e-01  6.5298534480273743e-02 -4.2130610470887081e-01 -2.4068800785609387e-01  -2.7981187223706300e-01 3.1673699125375307e-02 -1.2794762575859368e-02  -2.9157513629617821e-01 -3.8927725649996059e-01 -4.1453029677303976e-01  -2.7360203513566062e-01 -7.3887081137204033e-02 -3.1806075418917924e-02  -1.0101743675604125e-01 -2.2448771111675261e-01 -5.6057550916926040e-02  -4.9698832844705393e-01 -2.0670307596575394e-01 -3.9920276627031520e-01  -5.6608843562627242e-01 4.6947836388587669e-02 -3.6859857670926965e-01  -2.0579705442094576e-01 2.9163166141040142e-01 -5.8614437695745571e-02  -4.8723959094809283e-01 -2.3872390675667074e-01 -3.3467324499876283e-01  -4.0772766276038785e-01 3.7893788705757342e-01 -2.9594839994631084e-01  -2.5089629351896325e-01 -4.2154135628266576e-01 -3.4692119519426712e-01  -3.5665932930270433e-01 -3.1702414877241514e-01 -2.2688110927771377e-01  -1.5942078693483558e-01 -4.0142493754361458e-01 -2.3321113014836095e-01  -2.4266701843551433e-01 -3.0883382006990756e-01 -1.5975467950587144e-01  -4.4793721041970425e-01 -4.9302850765160146e-02 -1.2349929477938243e-01  -4.4480751703199783e-01 1.2549240028836553e-01 -1.1178803834357663e-01  -6.1555063066424991e-02 -4.6169127687543282e-01 -3.4097317981726716e-01  -5.4879397085032200e-01 -5.7070941173220932e-03 -2.3187023121548783e-01  -5.3981051388635415e-01 1.7298542154835536e-01 -2.4422939610918967e-01  4.9545326149073185e-02 -3.3393204867327203e-01 -1.4973972005847533e-01  -3.5888694445902602e-01 2.6657236034099335e-01 -1.0358107224412549e-01  -2.1374948975460228e-01 -1.8443346661930535e-01 -6.2325622228806381e-02  -1.1220511309213667e-01 -4.2086449799510356e-01 -4.2272086985672713e-01  -2.5864863434364043e-02 -3.7566572905528911e-01 -1.8839173280364371e-01  -2.4764626035621914e-01 1.3660212685829543e-01 -1.2389684432843148e-02  -3.0051319604527016e-01 4.0461089727215105e-01 -1.8347096712287064e-01  8.2676409381908553e-02 -4.6358979787335086e-01 -3.2758696635133117e-01  2.2724523818091674e-02 -4.5636101051556965e-01 -4.5477775052912006e-01  -4.6762557367308727e-01 3.1507522381104719e-01 -3.5926394733036376e-01  -1.6472966027932856e-01 1.6664911612696606e-01 1.1242536155