<?xml version="1.0"?>
<VTKFile type="UnstructuredGrid"  version="0.1"  >
<UnstructuredGrid>
<Piece  NumberOfPoints="1268" NumberOfCells="4847">
<Points>
<DataArray  type="Float64"  NumberOfComponents="3"  format="ascii">1.994716987487452 0.01317707561264319 -1.202466945460223e-11  1.374072606111497 -0.08614134488653273 -5.388997575085332  -1.285941478930618 0.1916557790035214 -5.691288663606836  -1.59032616235459 -0.4515196446136259 1.626303258728257e-17  0.4950030257755884 2.521650519233041 -5.495391852657774  -0.4107718940653654 -2.429115409112172 -5.58531208084276  -0.9314707163843408 -3.006923447963563 4.87890977618477e-17  1.161824811771535 2.948440156756841 -3.391384395534658e-14  2.146749234505421 0.002696741478414759 -0.5615078450779066  2.330988047973839 -0.000873250973709995 -1.113141311680313  2.540713632977715 -0.1384292375506191 -1.637427654548237  2.645241452520652 -0.2872312815961211 -2.18637082393926  2.504842461151312 -0.2752146673621067 -2.746850782899552  2.287876352721185 -0.2088259978706829 -3.283011632728322  2.137771360922677 -0.2093380261300688 -3.844996501809416  1.970142554575494 -0.2193701374385486 -4.401638277082749  1.701580801829277 -0.1696632515169769 -4.915066532844666  1.398049690886424 0.4419377546899956 -5.387643705321969  1.183972204621215 0.9208338616597355 -5.413149504812257  0.7621482426349403 1.234356207118232 -5.461782499987256  0.2539805730796886 1.370727420898931 -5.519751404145364  -0.2689415860383004 1.319053689498898 -5.578906487138381  -0.7357170559581984 1.076180709179107 -5.631191713357971  -1.086003096318238 0.6812820615514149 -5.669884670156524  -1.65706961757681 -0.5275128747266272 -0.6240725009925172  -1.829082870387909 -0.8347372240299333 -1.153553189134448  -2.030635262011336 -1.097965926806997 -1.693320688638939  -2.148557703924963 -0.9683820133813712 -2.295450526931833  -2.119047321408695 -0.7521727279271558 -2.890676896601294  -1.972500555455803 -0.7106310836492745 -3.509380855831461  -1.885028119342598 -0.4902108162504233 -4.093718100793141  -1.832050776792238 -0.1313823297003599 -4.617858136599065  -1.636180550340053 0.1151199882480144 -5.165527944859976  -1.540434086810702 0.1014447694855235 -7.644826989049428e-17  -1.339902801239663 0.6191128040412099 2.218327606354497e-17  -0.9949589579071262 1.053322092476122 2.12059320661159e-17  -0.5243975458638882 1.346285776146202 7.754217898549941e-16  0.01399251627036286 1.481823287560149 3.252316763596149e-17  0.5696211504784076 1.47677978548424 -7.207855520904863e-17  1.105448032340458 1.331487337928338 1.951563910473908e-16  1.561367740818086 1.018090979386763 -2.179459114756194e-16  1.860006992193919 0.551530302300456 1.369433074745588e-16  -0.152869286718376 2.506583809965366 -5.568804938302105  -0.7781210310064858 2.335338381675429 -5.639249366957451  -1.340550096787874 2.011723800088065 -5.702178028336585  -1.803922993566052 1.555830170950866 -5.753534898075912  -2.144678763029901 1.000979069722826 -5.790734833138769  -2.346903237737564 0.3811866585909049 -5.812061421922149  -2.406990243842066 -0.2684488461825228 -5.817196438260218  -2.318433628103212 -0.9144163570965761 -5.805488779558074  -2.059391262210163 -1.511004864267824 -5.774580158166454  -1.615755841275718 -1.983465489741105 -5.72306417450185  -1.043145925381342 -2.287058241276404 -5.657361969815248  -0.6986882361605687 -2.420627649803484 -5.024556445072709  -0.8272574030199392 -2.685291244074475 -4.476216325063944  -0.8113210073272845 -3.118860027310894 -4.01596683617901  -0.7618552434953355 -3.481598098596065 -3.504026669625047  -0.7509882165597778 -3.609083979854663 -2.886473298216772  -0.7986167670519319 -3.732483084086931 -2.268445488219849  -0.8276969497603353 -3.810997815301134 -1.64593496945388  -0.7425506523451623 -3.557242155569485 -1.078322423839125  -0.7147449622328144 -3.21189056194362 -0.5511080601316157  -1.482234509376526 -2.778582553401298 -5.854479658363816e-16  -1.970737176894139 -2.437284655419533 2.764697292186607e-16  -2.362818572203899 -1.988727212877528 2.439101268600111e-16  -2.642390785384022 -1.462244173776716 5.051059276813266e-16  -2.812149102113852 -0.89052423419162 2.276851973687203e-16  -2.877946727920729 -0.2976446157883296 -1.219909928720168e-16  -2.842947107925845 0.2978601752284433 4.065446096494693e-17  -2.70313036896374 0.8776122116387211 -5.041496169361013e-16  -2.452324348076021 1.418519584933707 4.379274460317988e-16  -2.098265626135573 1.898294456130726 1.951060033519619e-16  -1.658391347368763 2.301023318502569 -1.789574489620802e-16  -1.154148079923361 2.619757341302747 -2.081203863085907e-15  -0.6042202207747882 2.851073703499478 -3.577841418755692e-16  -0.02416138323675775 2.990516581461941 4.065982498622179e-16  0.5710641261211448 3.028216945076794 -1.46882551317968e-16  0.6414151130412097 2.696325287154043 -4.983333021490838  0.771852374565919 2.778456367279237 -4.445188759107248  0.8805845204306011 2.73078881179073 -3.897720120696569  0.9481597620953167 2.69798349057175 -3.343104559074628  0.9815370707090804 2.778214865778854 -2.789250505759619  1.013475345489448 2.861817704396183 -2.235671116027784  1.055849759321274 2.898356228459238 -1.677594140621302  1.093646323460014 2.92793989028903 -1.118725590781912  1.124098871622056 2.957526991478201 -0.5594169689370629  0.2477015793419729 -2.415655802610486 -5.510682951113449  0.8844491790088972 -2.245867158009595 -5.438931443942415  1.464891069119211 -1.932330028996181 -5.373934600293736  1.955087092649627 -1.489613175355717 -5.319502697776375  2.318355026965356 -0.937054784961175 -5.279744576064058  2.524994411863564 -0.307899182343253 -5.257941630215678  2.574632820450045 0.3531084349228537 -5.254020561031156  2.465743861849647 1.006614152640354 -5.268052816559671  2.183897076015212 1.604484044160622 -5.301550147358176  1.722560240631265 2.07491696755195 -5.35506775502591  1.13806318635062 2.378906583716481 -5.422118662603529  1.742182153284979 2.73179858498085 5.854691697147836e-16  2.262480931380501 2.395264875892136 -2.601681534737615e-16  2.698000706832733 1.954727370266727 -3.903113804560263e-16  3.021530388777258 1.426473918441798 1.707421408502106e-16  3.223363606607101 0.8405687193648443 -2.844806418042028e-16  3.305434793487241 0.2261994274297442 -4.472186606099012e-16  3.269241566985055 -0.3926051469820059 3.171555149681837e-16  3.113478077610213 -0.9924495549400153 3.510830505762065e-16  2.840400132149515 -1.548806515270482 -1.707368614952523e-16  2.466120284856568 -2.042983582774378 9.732831365154574e-17  2.008125599488538 -2.460814027017948 -3.577575055983979e-16  1.482521285196868 -2.789563899556613 -4.886146623064541e-17  0.9057866143556688 -3.01678997208197 -2.439392613813594e-16  0.2964958724913082 -3.130681163554852 3.414395345104792e-16  -0.32338307292875 -3.126978161260848 2.926910878106614e-16  -1.29067345658392 -0.3506098753383553 -5.690421630247788  -1.068897680254163 -0.8451623229646739 -5.663999894259847  -0.6782440885714781 -1.219621806060448 -5.6187489875115  -0.168757542531344 -1.390394566692369 -5.560546895724229  0.3611301401510615 -1.294122251639114 -5.500717901478111  0.8191548613516448 -1.005201308695582 -5.449538098373106  1.16817203978903 -0.5892762115769014 -5.411042670828763  1.960898302630318 -0.551652302616722 -8.131516293641286e-17  1.751009740180289 -1.077278642631261 7.445724005953314e-16  1.394016468000002 -1.516729095803803 1.136104663605282e-15  0.9227767039454898 -1.830301465573364 3.434443593283319e-16  0.3780412068884804 -1.984007749105097 8.617772484356591e-16  -0.1885780664025548 -1.977994130030172 2.357202029695971e-16  -0.7327557451871473 -1.821291124380143 1.942410916395698e-17  -1.191068596016128 -1.491774666596192 2.975009434367945e-16  -1.480405544894888 -1.006855825633415 6.954512630084263e-16  -1.812414118534285 0.2561131097252937 -2.664867827914479  2.421751940242729 0.6298287624476981 -1.933377861698098  0.7556418177061754 1.42269463362527 -4.617654324361507  0.003134751711410342 1.574821943356493 -0.9318675177876981  1.015098001669947 1.51699057942374 -0.9441494884276413  0.6193243625380082 1.764115149411371 -1.862230514405671  -0.4757031201037318 1.549728101933577 -1.958273018773558  0.1126459993007786 1.698838152590054 -2.957602797129454  -0.3405660022430232 1.569615851499001 -4.678135257405353  1.818199099779932 0.7365610114574719 -3.763003518505052  -0.9541815370276669 1.23451227632913 -2.875526912859068  -1.269464226480212 1.016489154450913 -4.672047638709048  1.301562892980348 1.557566760682666 -2.802482532053872  -0.7813756340336595 1.414221906310649 -3.725761628685261  -1.58370798409762 0.5643609111372817 -3.581008460136619  -0.988817348255397 1.158392548936659 -1.014254585170146  -1.607700527190565 0.2800106654898483 -1.030081240453645  -1.388203055800784 0.7951310659851955 -1.943712885648593  0.8261955720421881 1.570157055202129 -3.620947225245673  1.681455131778566 1.410849015379531 -1.876189895849114  1.878739160554727 0.943024132521903 -0.9866418074548234  2.103426639579445 1.000735947836943 -2.593434794762663  1.62623803052506 0.6468498306152269 -4.727220189271843  -1.882943490361709 -0.1546739965127431 -1.761716647663214  0.05868355051519467 1.656538949473053 -3.863342338366238  2.465845305360337 0.2632819454094029 -2.663569745038379  1.994842599423799 0.5019775153043848 -0.4779055074204815  2.1671824130763 0.4980244878585698 -1.027636182799239  1.710213566460811 0.9718796190568162 -0.4957578884333736  1.845584590132108 0.2253887364997403 -4.583879812097906  1.579035044615276 0.2924902970866011 -5.101748935835201  1.409777182251665 0.7868327264427526 -5.07202467441607  -1.039178737375989 1.089168173550246 -5.170746090958521  -1.377687418630729 0.6683636420802941 -5.233117919580046  -1.641402128985454 0.4875654733502939 -4.648722230221863  -1.765467255797776 -0.2695484060062747 -1.079683539430899  -1.617858736076732 -0.08318463488274264 -0.5123563299218489  -1.474019211051276 0.4496529111656123 -0.5150171376928306  2.417677350191343 0.3274903893149403 -1.506992657970159 
[...]
<PointData  Vectors="displacement"> 
<DataArray  type="Float64"  Name="displacement"  NumberOfComponents="3" format="ascii">0.0000000000000000e+00 0.0000000000000000e+00 0.0000000000000000e+00  3.5217189860910630e-01 2.9850012108138035e-01 -4.9424652289908361e-01  -4.5241371746004888e-01 -1.3311798182180062e-01 -4.9393596310210958e-01  0.0000000000000000e+00 0.0000000000000000e+00 0.0000000000000000e+00  -4.3356411595173788e-01 3.2115426487284865e-01 -3.5221586172723696e-01  3.0205386656535010e-01 -2.5160059199462953e-01 -5.2629891782682969e-01  0.0000000000000000e+00 0.0000000000000000e+00 0.0000000000000000e+00  0.0000000000000000e+00 0.0000000000000000e+00 0.0000000000000000e+00  2.6778617219343120e-01 5.7825378548291936e-02 -2.8342156794640628e-02  4.1418990010236850e-01 1.2274152947283221e-01 -6.0023994941638160e-02  4.8235811698054876e-01 1.4345141935153449e-01 -1.2125194721070522e-01  5.2209405885339677e-01 1.6103217641852086e-01 -2.1254082573765148e-01  5.7256362671070904e-01 2.0915317424224766e-01 -3.1788375804892471e-01  5.8894667701229020e-01 2.6248680096028476e-01 -3.8292256989302087e-01  5.5259342419510682e-01 2.8473209493420898e-01 -4.1159823524793099e-01  4.8662250701598109e-01 2.9174222306466685e-01 -4.3870814233685212e-01  4.2053456534512640e-01 3.0114436384121629e-01 -4.7121076245466048e-01  1.8019522742314825e-01 4.3435042572070737e-01 -4.5872307431867942e-01  -1.5052509016171194e-03 4.9904438651722444e-01 -4.4020223066665459e-01  -1.7142299447405943e-01 5.0989841778586509e-01 -4.2365804737279833e-01  -3.2082870276672376e-01 4.5118841867487103e-01 -4.3662553286777406e-01  -4.3820446148099346e-01 3.4473904250596171e-01 -4.4822989677567426e-01  -5.0344446176601454e-01 2.0100821859586515e-01 -4.6706066656076600e-01  -5.1486897662524667e-01 3.6126923300091526e-02 -4.8244096590180707e-01  -3.1294041553350654e-01 -2.8935392206263035e-02 -3.6135223247525633e-02  -4.3768159925984568e-01 -1.1915056325688476e-01 -4.9096094200539397e-02  -4.5583877551630331e-01 -2.1356586815642867e-01 -1.0624518820304062e-01  -5.0121750759346639e-01 -2.3020871883522073e-01 -1.9853416875629454e-01  -5.4447453366548193e-01 -2.3211310191664844e-01 -2.8278637956267227e-01  -5.4313379521432903e-01 -2.7218212121615487e-01 -3.4793581452753103e-01  -5.3399448949411843e-01 -2.6616160181574483e-01 -3.7563893449978886e-01  -5.2350149203547414e-01 -2.1325563665317132e-01 -3.9834639102863573e-01  -4.9471640162489361e-01 -1.7295779794383706e-01 -4.4731018050446486e-01  0.0000000000000000e+00 0.0000000000000000e+00 0.0000000000000000e+00  0.0000000000000000e+00 0.0000000000000000e+00 0.0000000000000000e+00  0.0000000000000000e+00 0.0000000000000000e+00 0.0000000000000000e+00  0.0000000000000000e+00 0.0000000000000000e+00 0.0000000000000000e+00  0.0000000000000000e+00 0.0000000000000000e+00 0.0000000000000000e+00  0.0000000000000000e+00 0.0000000000000000e+00 0.0000000000000000e+00  0.0000000000000000e+00 0.0000000000000000e+00 0.0000000000000000e+00  0.0000000000000000e+00 0.0000000000000000e+00 0.0000000000000000e+00  0.0000000000000000e+00 0.0000000000000000e+00 0.0000000000000000e+00  -4.8392145698084871e-01 2.2911223045985815e-01 -3.5887381711875066e-01  -5.1242312553027836e-01 1.2360994639983461e-01 -3.6484714480915498e-01  -5.1260016035516820e-01 1.7174897795154992e-02 -3.7659958431089624e-01  -4.7747990972704324e-01 -8.9907603147270629e-02 -3.8231183790569673e-01  -4.1974965848161355e-01 -1.9809317734109824e-01 -3.9054568885529461e-01  -3.2786105316221609e-01 -2.9064706921672556e-01 -4.0122748110073025e-01  -2.1537286967849614e-01 -3.5361296800781122e-01 -4.0700418241169672e-01  -8.9941254146518809e-02 -3.8480422139577486e-01 -4.1283316237580447e-01  4.1243785240452989e-02 -3.8533820018326953e-01 -4.3440406098495166e-01  1.2058171393628284e-01 -3.5601409130565315e-01 -4.5564179062727295e-01  2.0781785247065609e-01 -3.0679085159907199e-01 -4.8395253369406444e-01  2.3158396238448334e-01 -3.9946792186686331e-01 -4.9040917742104767e-01  2.0387503214878369e-01 -4.6250371789735534e-01 -4.2800842718434845e-01  2.1097871953130534e-01 -4.4970908513384361e-01 -3.4320012941167038e-01  2.0861650937189691e-01 -4.1829157171138087e-01 -2.8020119366948609e-01  1.9311100023618644e-01 -3.9989729043228861e-01 -2.3431147110748218e-01  1.5687479929681916e-01 -3.5368771909506436e-01 -1.6688494216419228e-01  1.4040914915322505e-01 -2.9425574560284340e-01 -1.2263447146379923e-01  1.0393645137096660e-01 -2.5490820180026563e-01 -8.1468080634653467e-02  5.1750941362901558e-02 -1.6355642546985347e-01 -1.9342717256452823e-02  0.0000000000000000e+00 0.0000000000000000e+00 0.0000000000000000e+00  0.0000000000000000e+00 0.0000000000000000e+00 0.0000000000000000e+00  0.0000000000000000e+00 0.0000000000000000e+00 0.0000000000000000e+00  0.0000000000000000e+00 0.0000000000000000e+00 0.0000000000000000e+00  0.0000000000000000e+00 0.0000000000000000e+00 0.0000000000000000e+00  0.0000000000000000e+00 0.0000000000000000e+00 0.0000000000000000e+00  0.0000000000000000e+00 0.0000000000000000e+00 0.0000000000000000e+00  0.0000000000000000e+00 0.0000000000000000e+00 0.0000000000000000e+00  0.0000000000000000e+00 0.0000000000000000e+00 0.0000000000000000e+00  0.0000000000000000e+00 0.0000000000000000e+00 0.0000000000000000e+00  0.0000000000000000e+00 0.0000000000000000e+00 0.0000000000000000e+00  0.0000000000000000e+00 0.0000000000000000e+00 0.0000000000000000e+00  0.0000000000000000e+00 0.0000000000000000e+00 0.0000000000000000e+00  0.0000000000000000e+00 0.0000000000000000e+00 0.0000000000000000e+00  0.0000000000000000e+00 0.0000000000000000e+00 0.0000000000000000e+00  -4.0660973512416942e-01 3.5861652863249038e-01 -3.3439554630342089e-01  -3.6040979617792934e-01 3.9563026662841078e-01 -3.1431157515237379e-01  -2.9095639850230681e-01 4.2961685898492874e-01 -2.8549478426649366e-01  -2.1807729131152881e-01 4.4598098019030935e-01 -2.3604556300109916e-01  -1.7418868053082359e-01 4.2653537006310693e-01 -1.7855014517739010e-01  -1.3566792336793204e-01 3.7935926823615812e-01 -1.1712130145762036e-01  -1.0324093079488750e-01 3.1117256716345404e-01 -5.9285001670197311e-02  -7.7275870077136224e-02 2.1252133148889482e-01 -4.1863916336446977e-03  -4.0517933627480095e-02 1.0524449523164087e-01 2.9500610627267804e-02  3.8746436840130444e-01 -1.7139389065324898e-01 -5.5116261702686320e-01  4.5475391654778380e-01 -6.2606713731260769e-02 -5.5198194265409317e-01  4.7455000600409686e-01 7.5904318735413923e-02 -5.3749647393187860e-01  4.4951402221395964e-01 2.2147791974875880e-01 -5.0127636562967448e-01  3.6296993675091638e-01 3.5109520329718802e-01 -4.6287543684981680e-01  2.4341926314075196e-01 4.4745262528289248e-01 -4.2579140974021212e-01  1.0445079993977942e-01 5.0603020963955425e-01 -3.9472745614133165e-01  -4.3285492798535663e-02 5.3268698763777333e-01 -3.8004156797656058e-01  -1.7208137890283773e-01 5.0663178599147851e-01 -3.6138388087065726e-01  -2.7761905379088025e-01 4.6734410246129987e-01 -3.5300597982529874e-01  -3.5665238041220881e-01 4.0240330469587526e-01 -3.4660457633833847e-01  0.0000000000000000e+00 0.0000000000000000e+00 0.0000000000000000e+00  0.0000000000000000e+00 0.0000000000000000e+00 0.0000000000000000e+00  0.0000000000000000e+00 0.0000000000000000e+00 0.0000000000000000e+00  0.0000000000000000e+00 0.0000000000000000e+00 0.0000000000000000e+00  0.0000000000000000e+00 0.0000000000000000e+00 0.0000000000000000e+00  0.0000000000000000e+00 0.0000000000000000e+00 0.0000000000000000e+00  0.0000000000000000e+00 0.0000000000000000e+00 0.0000000000000000e+00  0.0000000000000000e+00 0.0000000000000000e+00 0.0000000000000000e+00  0.0000000000000000e+00 0.0000000000000000e+00 0.0000000000000000e+00  0.0000000000000000e+00 0.0000000000000000e+00 0.0000000000000000e+00  0.0000000000000000e+00 0.0000000000000000e+00 0.0000000000000000e+00  0.0000000000000000e+00 0.0000000000000000e+00 0.0000000000000000e+00  0.0000000000000000e+00 0.0000000000000000e+00 0.0000000000000000e+00  0.0000000000000000e+00 0.0000000000000000e+00 0.0000000000000000e+00  0.0000000000000000e+00 0.0000000000000000e+00 0.0000000000000000e+00  -3.3014079443372868e-01 -2.8537906270493352e-01 -4.9910143676045682e-01  -1.5734903265804176e-01 -3.9060319279867745e-01 -5.0659666002116910e-01  4.8993806744396226e-02 -4.2559577702116608e-01 -5.0983098858520559e-01  2.4815042276185589e-01 -3.7452779597108926e-01 -5.2721997188353076e-01  4.0579770371109813e-01 -2.6923713812229239e-01 -5.3650204640074950e-01  4.8295595712783579e-01 -9.4172047250684773e-02 -5.3813834086630208e-01  4.6150968722322838e-01 1.1483726721953506e-01 -5.2326462321233125e-01  0.0000000000000000e+00 0.0000000000000000e+00 0.0000000000000000e+00  0.0000000000000000e+00 0.0000000000000000e+00 0.0000000000000000e+00  0.0000000000000000e+00 0.0000000000000000e+00 0.0000000000000000e+00  0.0000000000000000e+00 0.0000000000000000e+00 0.0000000000000000e+00  0.0000000000000000e+00 0.0000000000000000e+00 0.0000000000000000e+00  0.0000000000000000e+00 0.0000000000000000e+00 0.0000000000000000e+00  0.0000000000000000e+00 0.0000000000000000e+00 0.0000000000000000e+00  0.0000000000000000e+00 0.0000000000000000e+00 0.0000000000000000e+00  0.0000000000000000e+00 0.0000000000000000e+00 0.0000000000000000e+00  -6.8014156899563427e-01 9.1520860358736578e-02 -2.2261415310181756e-01  3.9044492057014740e-01 3.4617963449787459e-01 -1.6173581078739224e-01  -1.2807918359388368e-01 6.1005615652138001e-01 -3.6064660862472886e-01  -1.4140713212833236e-01 4.0641851252958566e-01 -7.6392814425637820e-02  5.7556835829556730e-02 4.0774714592681716e-01 -6.7120808547262545e-02  -8.6349452230352244e-02 5.8813983016683624e-01 -1.6554585917788725e-01  -3.8701875697422300e-01 5.2596897856667479e-01 -1.6963286570542976e-01  -2.9442619031373202e-01 6.3718617873219796e-01 -2.4408055961424427e-01  -4.5962619946160799e-01 4.5700141292369101e-01 -3.5254539200613272e-01  3.3279579351034161e-01 5.3729502440704080e-01 -3.6486997263333787e-01  -5.9276455356820068e-01 4.5360458107846058e-01 -2.2028994910152441e-01  -6.2833112539312019e-01 1.7855108573792663e-01 -3.6592728393578078e-01  7.4543731493139573e-02 6.3104597352177894e-01 -2.7195531048683308e-01  -5.6852100265114569e-01 4.5251894468957116e-01 -2.7488869379743841e-01  -7.1073194141172336e-01 1.4115743144852044e-01 -2.8556260859187116e-01  -3.5358866285496710e-01 3.0879841070898989e-01 -8.5006551410813036e-02  -4.5299395222394123e-01 1.1040093460484716e-01 -7.0971250898902036e-02  -6.0106466158304062e-01 2.8950786534639944e-01 -1.5344051885403806e-01  -8.1652787937982363e-02 6.5944406134959910e-01 -3.1019267003545875e-01  1.9000631382708422e-01 5.1672615373171860e-01 -1.5313362113117471e-01  2.6447885311523289e-01 3.0603910441154103e-01 -5.9846700477825802e-02  3.2199405473200099e-01 4.9917768739875412e-01 -2.6812503862032688e-01  2.2285760181334435e-01 4.9715743693023418e-01 -4.0884082303190339e-01  -5.9442810514209621e-01 9.9085615719767695e-03 -1.2522409143108559e-01  -3.3797750327294190e-01 6.0305431268711385e-01 -2.9416043722383040e-01  4.8603554113542330e-01 3.4219954157933757e-01 -2.9445807045776051e-01  2.1569982241337760e-01 1.1474501289968804e-01 -3.3137905320683038e-02  3.4741368603258915e-01 2.1969787434243840e-01 -5.6609705981273822e-02  1.6541847507644683e-01 1.8574410396949773e-01 -3.6545093035798046e-02  3.6701678167661711e-01 4.1040719131692893e-01 -4.2463924959223021e-01  2.7496606629241338e-01 4.1480416517634872e-01 -4.5306045247865867e-01  1.1907167136979513e-01 5.0554003065278597e-01 -4.2293191531962693e-01  -5.7348656748784532e-01 1.8571148573400947e-01 -4.1932676469642088e-01  -5.6371730301941159e-01 1.2386634330766427e-02 -4.3866126029314428e-01  -6.1571169595291919e-01 -1.9665430040435462e-02 -3.8001141213142431e-01  -4.6673388823202366e-01 1.6208579147996974e-03 -6.6072900692196776e-02  -2.7012296761728077e-01 3.0567476018591132e-02 -3.9754284920273872e-02  -2.5448974746682090e-01 9.2679819050400722e-02 -4.1530319831158867e-02  4.2024837234888840e-01 2.4037975436957487e-01 -1.0103524026141811e-01  4.5720907694953744e-01 2.5586413126056251e-01 -1.8292910823054215e-01  3.4265123941919551e-01 3.4124336692769730e-01 -9.6862191197283440e-02  5.0878798787995316e-01 2.5081435960299631e-01 -2.5801501116539211e-01  5.4627045841314881e-01 3.1204090130215711e-01 -3.4516902506681402e-01  4.2670354333854527e-01 3.4818241276382061e-01 -2.2653565398398329e-01  4.8623925502100135e-01 4.1445927858220272e-01 -3.7828948092381182e-01  4.2054324691695649e-01 4.2572539121909447e-01 -3.9720954205135872e-01  4.4883132295453465e-01 4.5366690459449061e-01 -3.5644577463568827e-01  2.7810518770943826e-01 5.2297000417050821e-01 -3.8064728718441759e-01  -6.0401278607698852e-02 5.6641015957437457e-01 -3.9668969088722655e-01  -2.2821556793212111e-01 5.5105626235126659e-01 -3.9276346628592862e-01  4.9691968867273492e-02 5.7825628134576157e-01 -3.8760313705739091e-01  -3.9118687433062577e-01 4.6559210996825440e-01 -3.9466396577673973e-01  -5.0716174731337271e-01 3.3678219452748898e-01 -4.0438566720694225e-01  -3.0638009760276580e-01 5.5931536640940194e-01 -3.5711800509311992e-01  -5.7069922102246762e-01 3.2870260679231195e-01 -3.5746885720269983e-01  -5.7136984693374393e-01 -1.1080277283575417e-01 -1.5039439336798052e-01  -5.2289614439641030e-01 -6.1457049223469729e-02 -8.6246178921944375e-02  -5.4561980130308052e-01 7.1899746477519552e-02 -9.5261112060734399e-02  -6.4699875791448125e-01 -8.9740053868152370e-02 -2.8898201142182239e-01  -6.1456038238184874e-01 -8.1893587619087466e-02 -2.1282470695104841e-01  -6.4902776731452505e-01 5.5324790896163462e-02 -1.7437094909444642e-01  -6.6309859945053662e-01 -3.7504349537866744e-02 -3.3547169685387390e-01  -6.6880868883484312e-01 -7.1906714632138408e-02 -3.1747167817853095e-01  -7.0322863928492518e-01 1.2023490504737204e-01 -2.6067316578835525e-01  -6.8127941762212019e-01 1.6453460979915557e-01 -3.1476818888539626e-01  -2.1824921517183929e-01 1.5459859909019832e-01 -4.8085788973869059e-02  -1.7005974539695057e-01 2.0994861946595084e-01 -5.3138670285408821e-02  -4.1644597206009909e-01 2.1309682378092215e-01 -8.1321373459419144e-02  -1.0333160937868911e-01 2.3753585526981680e-01 -5.1112107104368247e-02  -4.2055102308345652e-02 2.5076018984640458e-01 -4.7778607534359183e-02  -2.5008644967583249e-01 3.7243430104884773e-01 -8.4340831501529850e-02  2.4255003411121915e-02 2.5217439303283073e-01 -4.4670102740821893e-02  9.3417750422641985e-02 2.2124538130226604e-01 -3.6518927506370612e-02  -4.4685295602494651e-02 4.1395105566461377e-01 -6.8142222503771041e-02  1.6189502896719588e-01 3.6747288205099071e-01 -6.1602143724773663e-02  -6.7407214345757871e-01 2.8383574315636567e-01 -2.1726147070086602e-01  -6.7773156742297769e-01 3.1314452296025003e-01 -2.4495143355206167e-01  -6.1236326716823475e-01 3.8181154067221329e-01 -1.8881247294490511e-01  -6.6103082235324395e-01 2.0677880409588881e-01 -1.8203135632172510e-01  -6.1951945041969658e-01 1.5024954510318064e-01 -1.3950122569458812e-01  3.0086141212435191e-01 4.3892079456358107e-01 -1.5521022042371860e-01  2.4473558914774338e-01 4.2648312125039628e-01 -9.5889263969991853e-02  2.4816254637875082e-01 5.1093184050659179e-01 -2.0485434449145848e-01  3.5573034438265866e-01 4.2545427721183621e-01 -2.1647760155339132e-01  4.0975124527640450e-01 4.2986010546324815e-01 -2.8657880234842609e-01  -2.3279863906768217e-01 6.1667496857030202e-01 -3.2679855867297675e-01  -4.0601914580695797e-01 5.4183817991510608e-01 -3.1789334213912862e-01  1.0642768588864679e-01 6.0961871077481333e-01 -3.5948617724311838e-01  1.3455645156644810e-01 6.3115086209571469e-01 -3.4051211000670301e-01  -1.0086070758064342e-01 6.4220731935630093e-01 -3.3391977040564974e-01  -2.1340146272460750e-01 6.4290928993605434e-01 -3.0139060823304625e-01  -1.2886923663963273e-01 5.1250560333466322e-01 -1.1121548756407189e-01  -6.1560301170251854e-03 5.1477932169403784e-01 -1.0930094128211179e-01  -2.6891743900911952e-01 4.8362280899184612e-01 -1.1819332532991650e-01  -2.3828778543943938e-01 5.7496505043751889e-01 -1.6818914908797516e-01  -3.9236311162805476e-01 4.2426706594036429e-01 -1.2502477109534332e-01  5.7797077792510844e-02 5.6859491592761768e-01 -1.5633263026148367e-01  1.2865879744084829e-01 4.8504103945082083e-01 -1.0458910279666722e-01  -3.5443367286453953e-01 5.9830919428685103e-01 -2.1152668610839151e-01  -1.9067858475502536e-01 6.3601430075495635e-01 -2.1797435899267478e-01  -1.0656000489078202e-01 6.5574328417405903e-01 -2.6163028648661740e-01  -1.3103050628879351e-02 6.2401735171786155e-01 -2.1371164887120336e-01  1.3411685746218524e-01 5.8167296202065133e-01 -2.1666995891342161e-01  -5.0131876072002690e-01 5.1362117453086498e-01 -1.9907431200258363e-01  -4.6018488677393182e-01 5.6677101387794093e-01 -2.2977241780645546e-01  -5.1564337875761046e-01 4.2466453106819163e-01 -1.6180860340453987e-01  -4.9328742716474167e-01 3.1685014043999044e-01 -1.1900728260809285e-01  -5.8636666231859536e-01 4.5919430407053924e-01 -2.4564283472462844e-01  -4.4544611021204350e-01 5.7009241182990955e-01 -2.5411573166818063e-01  -1.9570736574721870e-01 6.5288550805933798e-01 -2.7876521076227895e-01  4.7186902517148592e-03 6.5606617493564101e-01 -2.9750681449617822e-01  -4.6233260898855261e-01 5.4042956438229672e-01 -2.7921359376389326e-01  -3.2063473738197440e-01 6.2620774716101391e-01 -2.6940234714780920e-01  -5.1715537153455637e-01 4.6192742937046138e-01 -3.0963843874792951e-01  -6.2123247111007318e-01 3.2813965354515484e-01 -3.1396370709083804e-01  2.0779659433229822e-01 6.1268935440704497e-01 -3.3014839042689476e-01  3.4628358479710780e-01 5.3685044647696978e-01 -3.4240446435596134e-01  2.0813714515980614e-01 5.7779155667803506e-01 -2.7320479969925643e-01  -6.7014828894494216e-01 3.1011777422202114e-01 -2.6989846765391245e-01  -5.4979226898296374e-01 1.9841626470177423e-01 -1.1195223506833687e-01  7.3176918072091840e-02 -3.9507390740121934e-01 -2.1639975895650143e-01  -2.5928462269092034e-01 2.5743567423311221e-02 -7.9309978962007512e-03  -2.6795665338667252e-01 -3.8088686416151196e-01 -3.7671173483885512e-01  -2.5230620736820003e-01 -7.2121957758171318e-02 -2.6252658075543892e-02  -8.8244753218124292e-02 -2.0954265749146547e-01 -5.0865132993644764e-02  -4.6818618599541378e-01 -2.0821484091714762e-01 -3.6178675032310675e-01  -5.3851141041257489e-01 3.4746691923400928e-02 -3.3259545316683714e-01  -1.9541813658638166e-01 2.6948376357771309e-01 -4.8523791476308697e-02  -4.5465525993466838e-01 -2.3593366135389784e-01 -3.0354175434929254e-01  -3.9078095074917879e-01 3.5344128622305254e-01 -2.6541667100440886e-01  -2.2582524940992887e-01 -4.0761807131849859e-01 -3.1509723105333265e-01  -3.2942566288225111e-01 -3.0682711694497411e-01 -2.0471218413538475e-01  -1.3944795364907947e-01 -3.8302805442486265e-01 -2.1018922596727360e-01  -2.2027371606655005e-01 -2.9507401641899383e-01 -1.4404539362914970e-01  -4.1850998225068747e-01 -5.2627324167913027e-02 -1.0949563909715859e-01  -4.1751214997857505e-01 1.1252831721401139e-01 -9.7128968454491801e-02  -4.5170469330356365e-02 -4.4098417731682171e-01 -3.0787106768905476e-01  -5.1636995616054149e-01 -1.3284410709752732e-02 -2.0803224052810929e-01  -5.1050055130013194e-01 1.5646345636447900e-01 -2.1890146635855054e-01  5.5714104398484190e-02 -3.1223803065242711e-01 -1.3564962460868804e-01  -3.3816378741202380e-01 2.4606282958593409e-01 -8.8946638912202891e-02  -1.9431290763275688e-01 -1.7467155371170498e-01 -5.5917489689524660e-02  -9.5081521014854814e-02 -4.0437397422641735e-01 -3.8165772422201272e-01  -1.4418034099329190e-02 -3.5379440786399619e-01 -1.6918666712556821e-01  -2.3035421411228010e-01 1.2413518923544763e-01 -7.2240388959337078e-03  -2.8675614425364326e-01 3.7696710106183406e-01 -1.6261338365725714e-01  9.1128532719029723e-02 -4.3838940675321464e-01 -2.9556244411479193e-01  3.4267319735651704e-02 -4.3372970842596037e-01 -4.1189139872842812e-01  -4.4987682491139847e-01 2.9279228345209718e-01 -3.2223507197445256e-01  -1.5417346057336359e-01 1.5225950924964693e-01 5.177578764